# vtk DataFile Version 2.0
2DTruss, Created by Gmsh 4.11.1 
ASCII
DATASET UNSTRUCTURED_GRID
POINTS 5 double
0 0 0
1 0 0
2 0 0
0.5 1 0
1.5 1 0

CELLS 12 31
1 0
1 1
1 2
1 3
1 4
2 0 3
2 3 1
2 1 4
2 4 2
2 2 1
2 1 0
2 3 4

CELL_TYPES 12
1
1
1
1
1
3
3
3
3
3
3
3

CELL_DATA 12
SCALARS CellEntityIds int 1
LOOKUP_TABLE default
1
3
2
-1
-1
-1
-1
-1
-1
-1
-1
-1
