# vtk DataFile Version 2.0
2DTruss_ex2, Created by Gmsh 4.11.1 
ASCII
DATASET UNSTRUCTURED_GRID
POINTS 6 double
0 0 0
3 0 0
6 0 0
0 3 0
3 3 0
6 3 0

CELLS 17 45
1 0
1 1
1 2
1 3
1 4
1 5
2 0 1
2 1 2
2 2 5
2 5 4
2 4 3
2 3 0
2 1 4
2 1 5
2 2 4
2 1 3
2 0 4

CELL_TYPES 17
1
1
1
1
1
1
3
3
3
3
3
3
3
3
3
3
3

CELL_DATA 17
SCALARS CellEntityIds int 1
LOOKUP_TABLE default
1
-1
2
3
3
3
-1
-1
-1
-1
-1
-1
-1
-1
-1
-1
-1
