# vtk DataFile Version 2.0
beam, Created by Gmsh 4.11.1 
ASCII
DATASET UNSTRUCTURED_GRID
POINTS 11 double
0 0 0
10 0 0
1 0 0
2 0 0
3 0 0
4 0 0
5 0 0
6 0 0
7 0 0
8 0 0
9 0 0

CELLS 12 34
1 0
1 1
2 0 2
2 2 3
2 3 4
2 4 5
2 5 6
2 6 7
2 7 8
2 8 9
2 9 10
2 10 1

CELL_TYPES 12
1
1
3
3
3
3
3
3
3
3
3
3

CELL_DATA 12
SCALARS CellEntityIds int 1
LOOKUP_TABLE default
1
2
3
3
3
3
3
3
3
3
3
3
