# vtk DataFile Version 2.0
1el_test, Created by Gmsh 4.11.1 
ASCII
DATASET UNSTRUCTURED_GRID
POINTS 2 double
0 0 0
1 1 1

CELLS 3 7
1 0
1 1
2 1 0

CELL_TYPES 3
1
1
3

CELL_DATA 3
SCALARS CellEntityIds int 1
LOOKUP_TABLE default
1
2
-1
