# vtk DataFile Version 2.0
1el_test, Created by Gmsh 4.11.1 
ASCII
DATASET UNSTRUCTURED_GRID
POINTS 3 double
0 0 0
1 1 1
0.5 0.5 0.5

CELLS 4 10
1 0
1 1
2 1 2
2 2 0

CELL_TYPES 4
1
1
3
3

CELL_DATA 4
SCALARS CellEntityIds int 1
LOOKUP_TABLE default
1
2
-1
-1
