# vtk DataFile Version 2.0
axi_test_1elem, Created by Gmsh 4.11.1 
ASCII
DATASET UNSTRUCTURED_GRID
POINTS 9 double
0.5 0 0
1 0 0
1 1 0
0.5 1 0
0.75 1 0
1 0.5 0
0.75 0 0
0.5 0.4999999999999999 0
0.75 0.5 0

CELLS 9 34
1 0
1 1
1 2
1 3
3 3 2 4
3 2 1 5
3 1 0 6
3 0 3 7
9 3 2 1 0 4 5 6 7 8

CELL_TYPES 9
1
1
1
1
21
21
21
21
28

CELL_DATA 9
SCALARS CellEntityIds int 1
LOOKUP_TABLE default
-1
-1
-1
-1
5
-1
5
7
-1
