# vtk DataFile Version 2.0
axishell_quad, Created by Gmsh 4.11.1 
ASCII
DATASET UNSTRUCTURED_GRID
POINTS 22 double
0 0 0
5 0 0
0 5 0
6 0 0
0 6 0
4.330127018922195 2.499999999999997 0
2.500000000000006 4.330127018922189 0
4.829629131445342 1.294095225512602 0
3.535533905932741 3.535533905932734 0
1.294095225512608 4.829629131445341 0
5.196152422706634 2.999999999999996 0
3.000000000000007 5.196152422706628 0
5.79555495773441 1.552914270615122 0
4.242640687119289 4.24264068711928 0
1.552914270615129 5.795554957734408 0
0 5.5 0
5.5 0 0
4.763139720814415 2.749999999999996 0
5.312592044589876 1.423504748063862 0
2.750000000000007 4.763139720814408 0
3.889087296526015 3.889087296526007 0
1.423504748063868 5.312592044589874 0

CELLS 16 72
1 0
1 1
1 2
1 3
1 4
3 1 5 7
3 5 6 8
3 6 2 9
3 3 10 12
3 10 11 13
3 11 4 14
3 4 2 15
3 3 1 16
9 1 5 10 3 7 17 12 16 18
9 5 6 11 10 8 19 13 17 20
9 6 2 4 11 9 15 14 19 21

CELL_TYPES 16
1
1
1
1
1
21
21
21
21
21
21
21
21
28
28
28

CELL_DATA 16
SCALARS CellEntityIds int 1
LOOKUP_TABLE default
-1
-1
-1
-1
-1
7
7
7
-1
-1
-1
5
6
-1
-1
-1
