# vtk DataFile Version 2.0
axishell_quad, Created by Gmsh 4.11.1 
ASCII
DATASET UNSTRUCTURED_GRID
POINTS 288 double
0 0 0
5 0 0
0 5 0
6 0 0
0 6 0
4.984586668665639 0.3922954786392241 0
4.938441702975689 0.7821723252011537 0
4.861849601988383 1.167226819279526 0
4.755282581475769 1.545084971874735 0
4.619397662556435 1.913417161825446 0
4.45503262094184 2.269952498697731 0
4.263200821770464 2.61249282357974 0
4.045084971874742 2.93892626146236 0
3.802029828000161 3.247240241650911 0
3.535533905932744 3.535533905932731 0
3.247240241650927 3.802029828000147 0
2.938926261462373 4.045084971874732 0
2.612492823579751 4.263200821770457 0
2.269952498697739 4.455032620941837 0
1.913417161825456 4.619397662556431 0
1.545084971874742 4.755282581475766 0
1.16722681927953 4.861849601988382 0
0.7821723252011596 4.938441702975688 0
0.3922954786392279 4.984586668665639 0
4.996145181203614 0.1962990787953435 0
4.965342284774631 0.5876869872891864 0
4.903926402016152 0.9754516100806419 0
4.812276182268237 1.35720224932537 0
4.690956679612422 1.730585285387461 0
4.540715869125408 2.093298687687139 0
4.362480035363988 2.443106207484771 0
4.15734806151273 2.777851165098006 0
3.92658465440373 3.095469746549163 0
3.671612547178435 3.394003727664701 0
3.394003727664717 3.67161254717842 0
3.095469746549178 3.926584654403718 0
2.777851165098018 4.157348061512721 0
2.44310620748478 4.362480035363983 0
2.093298687687144 4.540715869125405 0
1.730585285387471 4.690956679612419 0
1.357202249325375 4.812276182268235 0
0.9754516100806433 4.903926402016151 0
0.5876869872891923 4.965342284774631 0
0.1962990787953451 4.996145181203614 0
5.981504002398768 0.4707545743670689 0
5.926130043570827 0.9386067902413844 0
5.83421952238606 1.400672183135432 0
5.706339097770923 1.854101966249681 0
5.543277195067722 2.296100594190535 0
5.346039145130209 2.723942998437277 0
5.115840986124557 3.134991388295688 0
4.85410196624969 3.526711513754831 0
4.562435793600192 3.896688289981095 0
4.242640687119294 4.242640687119277 0
3.896688289981113 4.562435793600176 0
3.526711513754848 4.854101966249678 0
3.134991388295701 5.115840986124549 0
2.723942998437287 5.346039145130204 0
2.296100594190547 5.543277195067717 0
1.854101966249691 5.706339097770919 0
1.400672183135436 5.834219522386059 0
0.9386067902413915 5.926130043570826 0
0.4707545743670734 5.981504002398768 0
5.995374217444337 0.2355588945544123 0
5.958410741729558 0.7052243847470264 0
5.884711682419383 1.17054193209677 0
5.774731418721885 1.628642699190443 0
5.629148015534907 2.076702342464953 0
5.448859042950489 2.511958425224567 0
5.234976042436785 2.931727448981726 0
4.988817673815276 3.333421398117607 0
4.711901585284476 3.714563695858996 0
4.40593505661412 4.072804473197642 0
4.07280447319766 4.405935056614105 0
3.714563695859014 4.711901585284462 0
3.333421398117622 4.988817673815266 0
2.931727448981737 5.234976042436779 0
2.511958425224573 5.448859042950486 0
2.076702342464965 5.629148015534902 0
1.62864269919045 5.774731418721882 0
1.170541932096772 5.884711682419382 0
0.7052243847470309 5.958410741729557 0
0.2355588945544141 5.995374217444337 0
0 5.666666666666667 0
0 5.333333333333333 0
0 5.833333333333333 0
0 5.5 0
0 5.166666666666667 0
5.666666666666667 0 0
5.333333333333333 0 0
5.833333333333333 0 0
5.5 0 0
5.166666666666667 0 0
5.316892446576682 0.4184485105485063 0
5.649198224487725 0.4446015424577876 0
5.267671149840735 0.8343171468812303 0
5.596900596705781 0.8864619685613073 0
5.185972908787608 1.245041940564829 0
5.510096215586834 1.32285706185013 0
5.07230142024082 1.648090636666383 0
5.389320259005872 1.751096301458033 0
4.927357506726864 2.040978305947143 0
5.235317350897292 2.16853945006884 0
4.752034795671296 2.42128266527758 0
5.049036970400753 2.57261283185743 0
4.547414209888494 2.78665901181839 0
4.831627598006525 2.960825200057039 0
4.314757303333058 3.134854678893184 0
4.584429634791373 3.330783096324008 0
4.055498483200171 3.46372292442764 0
4.308967138400181 3.680205607204368 0
3.771236166328261 3.771236166328246 0
4.006938426723776 4.006938426723762 0
3.463722924427656 4.055498483200157 0
3.680205607204384 4.308967138400167 0
3.134854678893198 4.314757303333047 0
3.330783096324023 4.584429634791363 0
2.7866590118184 4.547414209888488 0
2.96082520005705 4.831627598006518 0
2.421282665277587 4.752034795671292 0
2.572612831857437 5.049036970400748 0
2.040978305947152 4.92735750672686 0
2.168539450068849 5.235317350897288 0
1.648090636666391 5.072301420240818 0
1.75109630145804 5.389320259005869 0
1.245041940564831 5.185972908787608 0
1.322857061850133 5.510096215586833 0
0.834317146881236 5.267671149840734 0
0.886461968561314 5.59690059670578 0
0.4184485105485085 5.316892446576682 0
0.4446015424577907 5.649198224487725 0
5.150739557621161 0.4053719945938652 0
5.325112889955008 0.2092242552742531 0
5.160629035579311 0.2027616670347987 0
5.483045335532204 0.4315250265031469 0
5.657932445577195 0.2223007712288938 0
5.491522667766102 0.2157625132515735 0
5.815351113443247 0.4576780584124283 0
5.826653331510767 0.2289298328916529 0
5.103056426408212 0.8082447360411917 0
5.292281798208709 0.6263828287148683 0
5.12881204149167 0.6070349080020279 0
5.432285873273258 0.8603895577212688 0
5.623049410596753 0.6655317555095475 0
5.457665604402731 0.6459572921122079 0
5.761515320138304 0.9125343794013459 0
5.790730076163156 0.6853780701282872 0
5.023911255387996 1.206134379922178 0
5.226822029314172 1.03967954372303 0
5.065374215665162 1.007565576901836 0
5.348034562187221 1.28394950120748 0
5.553498406146307 1.104659515205719 0
5.390160217730239 1.072169529464374 0
5.672157868986448 1.361764622492781 0
5.719105044282845 1.137600723651245 0
4.913792000858295 1.596587804270559 0
5.129137164514214 1.446566288615606 0
4.970706673391225 1.401884268970488 0
5.230810839623346 1.699593469062208 0
5.449708237296353 1.536976681654082 0
5.289422700905284 1.491771485134844 0
5.547829678388397 1.802599133853857 0
5.612219828009119 1.582809690422263 0
4.773377584641649 1.977197733886295 0
4.999829463483842 1.844534471306763 0
4.845393071548132 1.787559878347112 0
5.081337428812078 2.104758878007991 0
5.312318804951582 1.959817875763436 0
5.156074134217712 1.9021761735351 0
5.389297272982507 2.232320022129687 0
5.470733410243245 2.018260109114195 0
4.603533708306569 2.345617581987655 0
4.83969615119908 2.231130485612361 0
4.690206010162244 2.16221458664975 0
4.900535883036024 2.496947748567504 0
5.142177160649022 2.370576140963134 0
4.990936655924052 2.300853313287748 0
5.19753805776548 2.648277915147353 0
5.295518101799756 2.44126728309385 0
4.405307515829479 2.699575917699065 0
4.649724502779895 2.603970838547985 0
4.506102269071942 2.523538523016378 0
4.68952090394751 2.873742105937715 0
4.940332284203639 2.766719015957234 0
4.795028393491767 2.68534492725261 0
4.973734292065541 3.047908294176364 0
5.087654163320212 2.84922323246948 0
4.179921137603899 3.036890470177772 0
4.431085756610775 2.960756845355787 0
4.294216909061753 2.869304005226896 0
4.449593469062215 3.232818887608596 0
4.708028616398949 3.145804148190523 0
4.569557186504863 3.053280496773155 0
4.719265800520532 3.428747305039419 0
4.848423145107112 3.239612773154065 0
3.928764155600166 3.355481583039275 0
4.185127893266614 3.299288801660412 0
4.055856273835172 3.197379274104788 0
4.182232810800176 3.571964265816003 0
4.446698386595777 3.505494351764188 0
4.315913139931196 3.4023915767123 0
4.435701466000186 3.788446948592731 0
4.579299985940127 3.610029023811592 0
3.653385036130502 3.653385036130488 0
3.913367324764216 3.617479545377943 0
3.792489935971326 3.505741636521322 0
3.889087296526018 3.889087296526004 0
4.157952782561979 3.843572016964064 0
4.035660053663097 3.730525781171004 0
4.124789556921535 4.124789556921519 0
4.281943919588049 3.958188245080854 0
3.355481583039291 3.928764155600152 0
3.617479545377958 3.913367324764202 0
3.505741636521337 3.792489935971311 0
3.571964265816019 4.182232810800162 0
3.84357201696408 4.157952782561964 0
3.730525781171019 4.035660053663083 0
3.788446948592748 4.435701466000172 0
3.95818824508087 4.281943919588034 0
3.036890470177786 4.179921137603889 0
3.299288801660427 4.185127893266602 0
3.197379274104803 4.05585627383516 0
3.232818887608611 4.449593469062205 0
3.505494351764203 4.446698386595765 0
3.402391576712315 4.315913139931183 0
3.428747305039435 4.71926580052052 0
3.610029023811609 4.579299985940113 0
2.699575917699075 4.405307515829472 0
2.960756845355799 4.431085756610767 0
2.869304005226908 4.294216909061745 0
2.873742105937725 4.689520903947503 0
3.145804148190536 4.70802861639894 0
3.053280496773168 4.569557186504854 0
3.047908294176375 4.973734292065534 0
3.239612773154079 4.848423145107104 0
2.345617581987663 4.603533708306565 0
2.603970838547994 4.649724502779891 0
2.523538523016387 4.506102269071937 0
2.496947748567512 4.900535883036021 0
2.766719015957244 4.940332284203634 0
2.685344927252619 4.795028393491762 0
2.648277915147362 5.197538057765476 0
2.84922323246949 5.087654163320206 0
1.977197733886304 4.773377584641646 0
2.23113048561237 4.839696151199076 0
2.162214586649757 4.690206010162241 0
2.104758878008 5.081337428812074 0
2.370576140963143 5.142177160649018 0
2.300853313287757 4.990936655924047 0
2.232320022129698 5.389297272982503 0
2.441267283093858 5.295518101799752 0
1.596587804270567 4.913792000858292 0
1.844534471306772 4.999829463483839 0
1.787559878347122 4.845393071548129 0
1.699593469062216 5.230810839623343 0
1.959817875763445 5.312318804951579 0
1.902176173535108 5.156074134217709 0
1.802599133853866 5.547829678388394 0
2.018260109114205 5.47073341024324 0
1.20613437992218 5.023911255387995 0
1.446566288615611 5.129137164514213 0
1.401884268970493 4.970706673391224 0
1.283949501207482 5.348034562187221 0
1.536976681654087 5.449708237296351 0
1.491771485134849 5.289422700905281 0
1.361764622492784 5.672157868986446 0
1.582809690422268 5.612219828009116 0
0.808244736041198 5.103056426408211 0
1.039679543723034 5.226822029314171 0
1.007565576901839 5.065374215665161 0
0.860389557721275 5.432285873273257 0
1.104659515205723 5.553498406146306 0
1.072169529464379 5.390160217730239 0
0.912534379401353 5.761515320138303 0
1.137600723651248 5.719105044282844 0
0.4053719945938683 5.150739557621161 0
0.6263828287148723 5.292281798208708 0
0.6070349080020327 5.12881204149167 0
0.4315250265031496 5.483045335532204 0
0.6655317555095523 5.623049410596752 0
0.6459572921122123 5.45766560440273 0
0.4576780584124318 5.815351113443246 0
0.6853780701282917 5.790730076163155 0
0.209224255274254 5.325112889955008 0
0.2027616670347996 5.160629035579311 0
0.2223007712288956 5.657932445577195 0
0.2157625132515748 5.491522667766102 0
0.2289298328916543 5.826653331510766 0

CELLS 111 794
1 0
1 1
1 2
1 3
1 4
3 1 5 24
3 5 6 25
3 6 7 26
3 7 8 27
3 8 9 28
3 9 10 29
3 10 11 30
3 11 12 31
3 12 13 32
3 13 14 33
3 14 15 34
3 15 16 35
3 16 17 36
3 17 18 37
3 18 19 38
3 19 20 39
3 20 21 40
3 21 22 41
3 22 23 42
3 23 2 43
3 3 44 63
3 44 45 64
3 45 46 65
3 46 47 66
3 47 48 67
3 48 49 68
3 49 50 69
3 50 51 70
3 51 52 71
3 52 53 72
3 53 54 73
3 54 55 74
3 55 56 75
3 56 57 76
3 57 58 77
3 58 59 78
3 59 60 79
3 60 61 80
3 61 62 81
3 62 4 82
3 4 83 85
3 83 84 86
3 84 2 87
3 3 88 90
3 88 89 91
3 89 1 92
9 1 5 93 89 24 131 132 92 133
9 89 93 94 88 132 134 135 91 136
9 88 94 44 3 135 137 63 90 138
9 5 6 95 93 25 139 140 131 141
9 93 95 96 94 140 142 143 134 144
9 94 96 45 44 143 145 64 137 146
9 6 7 97 95 26 147 148 139 149
9 95 97 98 96 148 150 151 142 152
9 96 98 46 45 151 153 65 145 154
9 7 8 99 97 27 155 156 147 157
9 97 99 100 98 156 158 159 150 160
9 98 100 47 46 159 161 66 153 162
9 8 9 101 99 28 163 164 155 165
9 99 101 102 100 164 166 167 158 168
9 100 102 48 47 167 169 67 161 170
9 9 10 103 101 29 171 172 163 173
9 101 103 104 102 172 174 175 166 176
9 102 104 49 48 175 177 68 169 178
9 10 11 105 103 30 179 180 171 181
9 103 105 106 104 180 182 183 174 184
9 104 106 50 49 183 185 69 177 186
9 11 12 107 105 31 187 188 179 189
9 105 107 108 106 188 190 191 182 192
9 106 108 51 50 191 193 70 185 194
9 12 13 109 107 32 195 196 187 197
9 107 109 110 108 196 198 199 190 200
9 108 110 52 51 199 201 71 193 202
9 13 14 111 109 33 203 204 195 205
9 109 111 112 110 204 206 207 198 208
9 110 112 53 52 207 209 72 201 210
9 14 15 113 111 34 211 212 203 213
9 111 113 114 112 212 214 215 206 216
9 112 114 54 53 215 217 73 209 218
9 15 16 115 113 35 219 220 211 221
9 113 115 116 114 220 222 223 214 224
9 114 116 55 54 223 225 74 217 226
9 16 17 117 115 36 227 228 219 229
9 115 117 118 116 228 230 231 222 232
9 116 118 56 55 231 233 75 225 234
9 17 18 119 117 37 235 236 227 237
9 117 119 120 118 236 238 239 230 240
9 118 120 57 56 239 241 76 233 242
9 18 19 121 119 38 243 244 235 245
9 119 121 122 120 244 246 247 238 248
9 120 122 58 57 247 249 77 241 250
9 19 20 123 121 39 251 252 243 253
9 121 123 124 122 252 254 255 246 256
9 122 124 59 58 255 257 78 249 258
9 20 21 125 123 40 259 260 251 261
9 123 125 126 124 260 262 263 254 264
9 124 126 60 59 263 265 79 257 266
9 21 22 127 125 41 267 268 259 269
9 125 127 128 126 268 270 271 262 272
9 126 128 61 60 271 273 80 265 274
9 22 23 129 127 42 275 276 267 277
9 127 129 130 128 276 278 279 270 280
9 128 130 62 61 279 281 81 273 282
9 23 2 84 129 43 87 283 275 284
9 129 84 83 130 283 86 285 278 286
9 130 83 4 62 285 85 82 281 287

CELL_TYPES 111
1
1
1
1
1
21
21
21
21
21
21
21
21
21
21
21
21
21
21
21
21
21
21
21
21
21
21
21
21
21
21
21
21
21
21
21
21
21
21
21
21
21
21
21
21
21
21
21
21
21
21
28
28
28
28
28
28
28
28
28
28
28
28
28
28
28
28
28
28
28
28
28
28
28
28
28
28
28
28
28
28
28
28
28
28
28
28
28
28
28
28
28
28
28
28
28
28
28
28
28
28
28
28
28
28
28
28
28
28
28
28

CELL_DATA 111
SCALARS CellEntityIds int 1
LOOKUP_TABLE default
-1
-1
-1
-1
-1
7
7
7
7
7
7
7
7
7
7
7
7
7
7
7
7
7
7
7
7
-1
-1
-1
-1
-1
-1
-1
-1
-1
-1
-1
-1
-1
-1
-1
-1
-1
-1
-1
-1
5
5
5
6
6
6
-1
-1
-1
-1
-1
-1
-1
-1
-1
-1
-1
-1
-1
-1
-1
-1
-1
-1
-1
-1
-1
-1
-1
-1
-1
-1
-1
-1
-1
-1
-1
-1
-1
-1
-1
-1
-1
-1
-1
-1
-1
-1
-1
-1
-1
-1
-1
-1
-1
-1
-1
-1
-1
-1
-1
-1
-1
-1
-1
-1
