# vtk DataFile Version 2.0
caclulix_axi_test, Created by Gmsh 4.11.1 
ASCII
DATASET UNSTRUCTURED_GRID
POINTS 996 double
0 0 0
1.98 0 0
2 0 0
0.1725683706403635 1.972465502221656 0
0.1743114854953167 1.992389396183491 0
1.979777694982445 0.02966948685090277 0
1.979110829848489 0.05933231140302361 0
1.977999554343046 0.08898181285360011 0
1.976444118003611 0.1186113333915822 0
1.974444870104228 0.1482142196926441 0
1.972002259577057 0.1777838244131894 0
1.969116834911571 0.2073135076830205 0
1.965789244031385 0.2367966385963222 0
1.962020234148771 0.2662265967006332 0
1.957810651596869 0.2955967734834764 0
1.953161441639642 0.3249005738563019 0
1.948073648259616 0.3541314176354148 0
1.942548413923455 0.3832827410195639 0
1.936586979325416 0.4123479980638435 0
1.930190683108756 0.4413206621495904 0
1.923360961565134 0.4701942274499361 0
1.916099348312093 0.4989622103906985 0
1.908407473948685 0.5276181511062696 0
1.90028706568932 0.5561556148901796 0
1.891739946975917 0.5845681936400176 0
1.882768037068453 0.6128495072963714 0
1.873373350613986 0.6409932052754758 0
1.863557997194272 0.6689929678952348 0
1.853324180852052 0.6968425077943148 0
1.842674199596136 0.7245355713439734 0
1.831610444885384 0.7520659400523114 0
1.820135401091698 0.7794274319606438 0
1.808251644942162 0.8066139030316581 0
1.795961844940432 0.8336192485290639 0
1.783268760767523 0.8604374043884101 0
1.770175242662121 0.8870623485787792 0
1.756684230780563 0.913488102455035 0
1.74279875453662 0.939708732100328 0
1.728521931921241 0.9657183496585647 0
1.713856968802407 0.9915111146565256 0
1.698807158205254 1.017081235315345 0
1.68337587957262 1.042422969851062 0
1.667566598006188 1.067530627763938 0
1.651382863488399 1.092398571116264 0
1.6348283100853 1.117021215798359 0
1.617906655130511 1.141393032782486 0
1.600621698390499 1.165508549364403 0
1.582977321211337 1.189362350392251 0
1.564977485647143 1.212949079482542 0
1.546626233570405 1.236263440222925 0
1.527927685764369 1.259300197361511 0
1.508886040997721 1.282054177982437 0
1.489505575081747 1.304520272667463 0
1.469790639910201 1.326693436643281 0
1.449745662482083 1.348568690914329 0
1.429375143907552 1.370141123380823 0
1.408683658397205 1.391405889941776 0
1.387675852234929 1.412358215582741 0
1.366356442734581 1.432993395448039 0
1.34473021718071 1.453306795897246 0
1.322802031753569 1.473293855545671 0
1.30057681043866 1.492950086288621 0
1.278059543921049 1.512271074309206 0
1.255255288464702 1.531252481069467 0
1.232169164777105 1.549890044284591 0
1.208806356859402 1.568179578880015 0
1.185172110842322 1.586116977931185 0
1.161271733808166 1.603698213585765 0
1.13711059259909 1.620919337968101 0
1.112694112611984 1.637776484065707 0
1.088027776580196 1.654265866597614 0
1.063117123342372 1.670383782864357 0
1.037967746598724 1.68612661357941 0
1.012585293654946 1.701490823681905 0
0.9869754641541152 1.716472963130433 0
0.9611440087968347 1.731069667677748 0
0.9350967280499112 1.745277659626213 0
0.9088394708438502 1.759093748563808 0
0.8823781332594874 1.772514832080539 0
0.8557186572040076 1.785537896465088 0
0.828867029076698 1.798160017381537 0
0.8018292784246935 1.810378360526035 0
0.7746114765890347 1.822190182263244 0
0.7472197353413562 1.833592830242416 0
0.7196602055114717 1.844583743992987 0
0.6919390756062138 1.855160455499529 0
0.6640625704197964 1.865320589755941 0
0.6360369496360294 1.875061865298768 0
0.6078685064227125 1.884382094719492 0
0.579563566018497 1.893279185155724 0
0.5511284843125447 1.901751138761157 0
0.5225696464173196 1.909796053154178 0
0.4938934652348029 1.917412121845056 0
0.4651063800164672 1.924597634641583 0
0.4362148549173509 1.931350978033106 0
0.4072253775445158 1.937670635552835 0
0.3781444575002626 1.94355518811837 0
0.3489786249203922 1.949003314350356 0
0.3197344290078542 1.9540137908692 0
0.290418436562131 1.95858549256978 0
0.2610372305046537 1.962717392874089 0
0.2315974084005993 1.966408563961754 0
0.202105580977415 1.969658176978377 0
1.97994442296561 0.0148351598366571 0
1.979499825410352 0.04450214826707667 0
1.978610730134451 0.07415914371683703 0
1.977277336784715 0.1037994866921067 0
1.975499944775318 0.1334165214383759 0
1.973278953220564 0.1630035974350075 0
1.970614860845269 0.1925540708886196 0
1.967508265872769 0.2220613062249505 0
1.963959865890587 0.2515186775788781 0
1.959970457693796 0.2809195702822657 0
1.955540937106091 0.3102573823492875 0
1.950672298778636 0.3395255259589056 0
1.945365635966713 0.3687174289341698 0
1.939622140284231 0.3978265362180087 0
1.933443101436147 0.4268463113451639 0
1.926829906928865 0.455770237909958 0
1.91978404175867 0.4845918210295614 0
1.912307088078268 0.5133045888024157 0
1.904400724841516 0.5419020937615077 0
1.896066727426415 0.5703779143221486 0
1.887306967236439 0.5987256562239447 0
1.878123411280319 0.6269389539666335 0
1.868518121730346 0.6550114722394552 0
1.85849325545931 0.6829369073437571 0
1.848051063556172 0.7107089886084884 0
1.837193890820584 0.7383214797982804 0
1.82592417523636 0.7657681805138021 0
1.814244447424025 0.7930429275840593 0
1.802157330072565 0.8201395964503393 0
1.789665537350501 0.8470521025414808 0
1.776771874296419 0.8737744026401725 0
1.763479236189098 0.9003004962399581 0
1.749790607897375 0.926624426892651 0
1.735709063209889 0.9527402835458627 0
1.72123776414486 0.9786422018703276 0
1.70637996024006 1.004324365576745 0
1.691138987823122 1.029781007721829 0
1.67551826926237 1.055006412003278 0
1.659521312198324 1.079994914043373 0
1.643151708756055 1.104740902660917 0
1.626413134738574 1.129238821131229 0
1.609309348801426 1.153483168433909 0
1.591844191608686 1.177468500488098 0
1.574021584970533 1.20118943137494 0
1.555845530962603 1.224640634547007 0
1.537320111027326 1.247816844024366 0
1.518449485057435 1.270712855577062 0
1.499237890461854 1.293323527893732 0
1.479689641214195 1.315643783736087 0
1.459809126884046 1.337668611079007 0
1.439600811651291 1.359393064236001 0
1.419069233303683 1.380812264969753 0
1.398219002217871 1.401921403587542 0
1.377054800324147 1.422715740021254 0
1.355581380055109 1.443190604891774 0
1.333803563278506 1.463341400557491 0
1.31172624021448 1.483163602146703 0
1.289354368337466 1.502652758573681 0
1.26669297126299 1.52180449353816 0
1.24374713761961 1.540614506508045 0
1.220522019906271 1.559078573685084 0
1.197022833335294 1.577192548953343 0
1.173254854661308 1.594952364810207 0
1.14922342099635 1.61235403327974 0
1.124933928611415 1.629393646808188 0
1.100391831724713 1.646067379141428 0
1.075602641276934 1.662371486184145 0
1.050571923693747 1.678302306840582 0
1.025305299635875 1.693856263836631 0
0.9998084427369587 1.709029864523115 0
0.9740870783295422 1.723819701660071 0
0.948146982159451 1.738222454181836 0
0.9219939790888428 1.752234887942802 0
0.8956339417882263 1.765853856443642 0
0.8690727894177611 1.77907630153786 0
0.8423164862980927 1.791899254118499 0
0.8153710405710809 1.804319834784851 0
0.7882425028506472 1.816335254489035 0
0.7609369648641173 1.827942815162275 0
0.7334605580843242 1.839139910320754 0
0.7058194523527713 1.849924025650901 0
0.6780198544942024 1.860292739573979 0
0.6500680069228499 1.870243723789858 0
0.6219701862407003 1.879774743799828 0
0.5937327018280736 1.888883659408365 0
0.5653618944268599 1.897568425203706 0
0.5368641347166897 1.905827091017152 0
0.5082458218844055 1.913657802360977 0
0.4795133821871153 1.921058800844855 0
0.4506732675091753 1.928028424570707 0
0.4217319539134121 1.934565108505882 0
0.39269594018692 1.940667384834586 0
0.3635717463817679 1.946333883287477 0
0.3343659123508966 1.951563331449367 0
0.3050849962796047 1.956354555044937 0
0.275735573212905 1.960706478202423 0
0.2463242335790924 1.964618123695206 0
0.2168575817098539 1.968088613161245 0
0.1873422343572747 1.971117167300316 0
1.999775449477218 0.02996917863727553 0
1.999101848331807 0.05993162767982183 0
1.997979347821258 0.08988061904404052 0
1.996408200003647 0.1198094276682649 0
1.994388757681038 0.1497113330228729 0
1.99192147432026 0.1795796206193833 0
1.989006903951082 0.2094075835182025 0
1.985645701041803 0.2391885238346689 0
1.981838620352294 0.2689157542430639 0
1.977586516764515 0.298582599478259 0
1.972890345090548 0.3281823978346475 0
1.967751159858198 0.3577085026620351 0
1.962170115074197 0.3871542838581453 0
1.956148463965067 0.4165131293574177 0
1.949687558695713 0.4457784466157479 0
1.942788850065792 0.4749436640908445 0
1.935453887183933 0.5040022327178773 0
1.927684317119884 0.5329476273800704 0
1.919481884534667 0.5617733483739188 0
1.910848431288805 0.5904729228687046 0
1.90178589602874 0.6190399063599721 0
1.892296313751501 0.6474678841166422 0
1.882381815347749 0.6757504726214493 0
1.872044627123285 0.7038813210043593 0
1.861287070299128 0.7318541124686601 0
1.850111560490286 0.7596625657094055 0
1.838520607163331 0.7873004363238826 0
1.826516813072891 0.8147615182137969 0
1.814102873677204 0.8420396449788524 0
1.801281576532851 0.8691286913014243 0
1.788055800668809 0.8960225743219999 0
1.774428515939963 0.9227152550050859 0
1.760402782360222 0.9492007394952808 0
1.745981749415394 0.9754730804631975 0
1.731168655355967 1.001526378440935 0
1.715966826469954 1.027354783146813 0
1.70037967633598 1.052952494799052 0
1.684410705056756 1.07831376541812 0
1.66806349847313 1.103432900117438 0
1.651341727358889 1.12830425838218 0
1.634249146596475 1.152922255335845 0
1.616789594333838 1.177281362994346 0
1.598966991122562 1.201376111507325 0
1.580785339037519 1.225201090386406 0
1.562248720778187 1.248750949720127 0
1.543361298751888 1.272020401375263 0
1.524127314139112 1.29500422018428 0
1.504551085941159 1.31769724511865 0
1.484637010010305 1.340094380447759 0
1.46438955806271 1.36219059688316 0
1.443813276674295 1.383980932707902 0
1.422912786259803 1.405460494890683 0
1.401692780035282 1.426624460184586 0
1.380158022964224 1.44746807621014 0
1.358313350687587 1.46798666252247 0
1.33616366843795 1.488175611662293 0
1.313713949938041 1.508030390190526 0
[...]
CELL_DATA 405
SCALARS CellEntityIds int 1
LOOKUP_TABLE default
-1
-1
-1
-1
-1
6
6
6
6
6
6
6
6
6
6
6
6
6
6
6
6
6
6
6
6
6
6
6
6
6
6
6
6
6
6
6
6
6
6
6
6
6
6
6
6
6
6
6
6
6
6
6
6
6
6
6
6
6
6
6
6
6
6
6
6
6
6
6
6
6
6
6
6
6
6
6
6
6
6
6
6
6
6
6
6
6
6
6
6
6
6
6
6
6
6
6
6
6
6
6
6
6
6
6
-1
-1
-1
-1
-1
-1
-1
-1
-1
-1
-1
-1
-1
-1
-1
-1
-1
-1
-1
-1
-1
-1
-1
-1
-1
-1
-1
-1
-1
-1
-1
-1
-1
-1
-1
-1
-1
-1
-1
-1
-1
-1
-1
-1
-1
-1
-1
-1
-1
-1
-1
-1
-1
-1
-1
-1
-1
-1
-1
-1
-1
-1
-1
-1
-1
-1
-1
-1
-1
-1
-1
-1
-1
-1
-1
-1
-1
-1
-1
-1
-1
-1
-1
-1
-1
-1
-1
-1
-1
-1
-1
-1
-1
-1
-1
-1
-1
-1
-1
7
7
8
8
5
5
5
5
5
5
5
5
5
5
5
5
5
5
5
5
5
5
5
5
5
5
5
5
5
5
5
5
5
5
5
5
5
5
5
5
5
5
5
5
5
5
5
5
5
5
5
5
5
5
5
5
5
5
5
5
5
5
5
5
5
5
5
5
5
5
5
5
5
5
5
5
5
5
5
5
5
5
5
5
5
5
5
5
5
5
5
5
5
5
5
5
5
5
5
5
5
5
5
5
5
5
5
5
5
5
5
5
5
5
5
5
5
5
5
5
5
5
5
5
5
5
5
5
5
5
5
5
5
5
5
5
5
5
5
5
5
5
5
5
5
5
5
5
5
5
5
5
5
5
5
5
5
5
5
5
5
5
5
5
5
5
5
5
5
5
5
5
5
5
5
5
5
5
5
5
5
5
5
5
5
5
5
5
5
5
5
5
5
5
5
5
5
5
5
5
5
5
