# vtk DataFile Version 2.0
rectangle_quad, Created by Gmsh 4.11.1 
ASCII
DATASET UNSTRUCTURED_GRID
POINTS 25 double
0 0 0
10 0 0
10 5 0
0 5 0
5 5 0
2.5 5 0
7.5 5 0
10 2.5 0
10 3.75 0
10 1.25 0
5 0 0
7.5 0 0
2.5 0 0
0 2.5 0
0 1.25 0
0 3.75 0
5 2.5 0
5 3.75 0
2.5 2.5 0
2.5 3.75 0
5 1.25 0
2.5 1.25 0
7.5 2.5 0
7.5 3.75 0
7.5 1.25 0

CELLS 16 80
1 0
1 1
1 2
1 3
3 3 4 5
3 4 2 6
3 2 7 8
3 7 1 9
3 1 10 11
3 10 0 12
3 0 13 14
3 13 3 15
9 3 4 16 13 5 17 18 15 19
9 13 16 10 0 18 20 12 14 21
9 4 2 7 16 6 8 22 17 23
9 16 7 1 10 22 9 11 20 24

CELL_TYPES 16
1
1
1
1
21
21
21
21
21
21
21
21
28
28
28
28

CELL_DATA 16
SCALARS CellEntityIds int 1
LOOKUP_TABLE default
-1
-1
-1
-1
-1
-1
5
5
-1
-1
1
1
-1
-1
-1
-1
