# vtk DataFile Version 2.0
rectangle_ц_с_ыекгсе, Created by Gmsh 4.11.1 
ASCII
DATASET UNSTRUCTURED_GRID
POINTS 16 double
-5 2.5 0
0 2.5 0
0 0.5 0
0 0 0
-5 0 0
-0.5 0 0
-2.5 0 0
-2.5 2.5 0
-1.25 1.25 0
-5 1.25 0
-3.75 0 0
-1.5 0 0
0 1.5 0
-0.3535533905932738 0.3535533905932737 0
-3.125 1.25 0
-0.801776695296637 0.801776695296637 0

CELLS 16 62
1 0
1 1
1 2
1 3
1 4
1 5
1 6
3 0 1 7
3 6 1 8
3 0 4 9
3 4 6 10
3 6 5 11
3 1 2 12
3 5 2 13
9 0 1 6 4 7 8 10 9 14
9 1 2 5 6 12 13 11 8 15

CELL_TYPES 16
1
1
1
1
1
1
1
21
21
21
21
21
21
21
28
28

CELL_DATA 16
SCALARS CellEntityIds int 1
LOOKUP_TABLE default
-1
-1
-1
-1
-1
-1
-1
-1
-1
1
7
7
5
-1
-1
-1
