# vtk DataFile Version 2.0
rectangle_ц_с_ыекгсе, Created by Gmsh 4.11.1 
ASCII
DATASET UNSTRUCTURED_GRID
POINTS 3004 double
-5 2.5 0
0 2.5 0
0 0.5 0
0 0 0
-5 0 0
-0.5 0 0
-2.5 0 0
-4.736842105263158 2.5 0
-4.473684210526316 2.5 0
-4.210526315789473 2.5 0
-3.947368421052632 2.5 0
-3.684210526315789 2.5 0
-3.421052631578947 2.5 0
-3.157894736842105 2.5 0
-2.894736842105263 2.5 0
-2.631578947368421 2.5 0
-2.368421052631579 2.5 0
-2.105263157894737 2.5 0
-1.842105263157895 2.5 0
-1.578947368421053 2.5 0
-1.315789473684211 2.5 0
-1.052631578947368 2.5 0
-0.7894736842105265 2.5 0
-0.526315789473685 2.5 0
-0.2631578947368425 2.5 0
-4.868421052631579 2.5 0
-4.605263157894737 2.5 0
-4.342105263157895 2.5 0
-4.078947368421053 2.5 0
-3.815789473684211 2.5 0
-3.552631578947369 2.5 0
-3.289473684210527 2.5 0
-3.026315789473684 2.5 0
-2.763157894736842 2.5 0
-2.5 2.5 0
-2.236842105263158 2.5 0
-1.973684210526316 2.5 0
-1.710526315789474 2.5 0
-1.447368421052632 2.5 0
-1.184210526315789 2.5 0
-0.9210526315789469 2.5 0
-0.6578947368421062 2.5 0
-0.3947368421052637 2.5 0
-0.1315789473684212 2.5 0
-2.368421052631579 0.131578947368421 0
-2.236842105263158 0.2631578947368421 0
-2.105263157894737 0.3947368421052631 0
-1.973684210526316 0.5263157894736842 0
-1.842105263157895 0.6578947368421052 0
-1.710526315789474 0.7894736842105262 0
-1.578947368421053 0.9210526315789473 0
-1.447368421052632 1.052631578947368 0
-1.315789473684211 1.184210526315789 0
-1.18421052631579 1.31578947368421 0
-1.052631578947369 1.447368421052631 0
-0.9210526315789476 1.578947368421052 0
-0.7894736842105265 1.710526315789473 0
-0.6578947368421053 1.842105263157895 0
-0.5263157894736845 1.973684210526315 0
-0.3947368421052633 2.105263157894737 0
-0.2631578947368425 2.236842105263158 0
-0.1315789473684212 2.368421052631579 0
-2.434210526315789 0.06578947368421052 0
-2.302631578947369 0.1973684210526316 0
-2.171052631578947 0.3289473684210526 0
-2.039473684210527 0.4605263157894737 0
-1.907894736842105 0.5921052631578947 0
-1.776315789473684 0.7236842105263157 0
-1.644736842105263 0.8552631578947368 0
-1.513157894736842 0.986842105263158 0
-1.381578947368421 1.118421052631579 0
-1.25 1.25 0
-1.118421052631579 1.381578947368421 0
-0.986842105263158 1.513157894736842 0
-0.8552631578947369 1.644736842105263 0
-0.7236842105263159 1.776315789473684 0
-0.5921052631578947 1.907894736842105 0
-0.4605263157894739 2.039473684210526 0
-0.3289473684210527 2.171052631578947 0
-0.1973684210526319 2.302631578947368 0
-0.06578947368421062 2.434210526315789 0
-5 2.368421052631579 0
-5 2.236842105263158 0
-5 2.105263157894737 0
-5 1.973684210526316 0
-5 1.842105263157895 0
-5 1.710526315789474 0
-5 1.578947368421053 0
-5 1.447368421052632 0
-5 1.315789473684211 0
-5 1.18421052631579 0
-5 1.052631578947368 0
-5 0.9210526315789473 0
-5 0.7894736842105265 0
-5 0.6578947368421053 0
-5 0.5263157894736841 0
-5 0.3947368421052633 0
-5 0.2631578947368425 0
-5 0.1315789473684212 0
-5 2.434210526315789 0
-5 2.302631578947369 0
-5 2.171052631578947 0
-5 2.039473684210527 0
-5 1.907894736842105 0
-5 1.776315789473684 0
-5 1.644736842105263 0
-5 1.513157894736842 0
-5 1.381578947368421 0
-5 1.25 0
-5 1.118421052631579 0
-5 0.986842105263158 0
-5 0.8552631578947369 0
-5 0.7236842105263159 0
-5 0.5921052631578947 0
-5 0.4605263157894735 0
-5 0.3289473684210531 0
-5 0.1973684210526319 0
-5 0.06578947368421062 0
-4.868421052631579 0 0
-4.736842105263158 0 0
-4.605263157894737 0 0
-4.473684210526316 0 0
-4.342105263157895 0 0
-4.210526315789473 0 0
-4.078947368421053 0 0
-3.947368421052632 0 0
-3.815789473684211 0 0
-3.684210526315789 0 0
-3.552631578947368 0 0
-3.421052631578947 0 0
-3.289473684210527 0 0
-3.157894736842105 0 0
-3.026315789473684 0 0
-2.894736842105263 0 0
-2.763157894736842 0 0
-2.631578947368421 0 0
-4.934210526315789 0 0
-4.802631578947368 0 0
-4.671052631578947 0 0
-4.539473684210527 0 0
-4.407894736842105 0 0
-4.276315789473684 0 0
-4.144736842105263 0 0
-4.013157894736842 0 0
-3.881578947368421 0 0
-3.75 0 0
-3.618421052631579 0 0
-3.486842105263158 0 0
-3.355263157894737 0 0
-3.223684210526316 0 0
-3.092105263157895 0 0
-2.960526315789473 0 0
-2.828947368421053 0 0
-2.697368421052632 0 0
-2.565789473684211 0 0
-2.394736842105263 0 0
-2.289473684210527 0 0
-2.184210526315789 0 0
-2.078947368421053 0 0
-1.973684210526316 0 0
-1.868421052631579 0 0
-1.763157894736842 0 0
-1.657894736842105 0 0
-1.552631578947369 0 0
-1.447368421052632 0 0
-1.342105263157895 0 0
-1.236842105263158 0 0
-1.131578947368421 0 0
-1.026315789473684 0 0
-0.9210526315789473 0 0
-0.8157894736842106 0 0
-0.7105263157894739 0 0
-0.6052631578947369 0 0
-2.447368421052631 0 0
-2.342105263157895 0 0
-2.236842105263158 0 0
-2.131578947368421 0 0
-2.026315789473684 0 0
-1.921052631578947 0 0
-1.815789473684211 0 0
-1.710526315789474 0 0
-1.605263157894737 0 0
-1.5 0 0
-1.394736842105263 0 0
-1.289473684210526 0 0
-1.18421052631579 0 0
-1.078947368421053 0 0
-0.9736842105263159 0 0
-0.868421052631579 0 0
-0.7631578947368423 0 0
-0.6578947368421053 0 0
-0.5526315789473686 0 0
0 2.394736842105263 0
0 2.289473684210527 0
0 2.184210526315789 0
0 2.078947368421053 0
0 1.973684210526316 0
0 1.868421052631579 0
0 1.763157894736842 0
0 1.657894736842105 0
0 1.552631578947369 0
0 1.447368421052632 0
0 1.342105263157895 0
0 1.236842105263158 0
0 1.131578947368421 0
0 1.026315789473684 0
0 0.9210526315789473 0
0 0.8157894736842106 0
0 0.7105263157894739 0
0 0.6052631578947369 0
0 2.447368421052631 0
0 2.342105263157895 0
0 2.236842105263158 0
0 2.131578947368421 0
0 2.026315789473684 0
0 1.921052631578947 0
0 1.815789473684211 0
0 1.710526315789474 0
0 1.605263157894737 0
0 1.5 0
0 1.394736842105263 0
0 1.289473684210526 0
0 1.18421052631579 0
0 1.078947368421053 0
0 0.9736842105263159 0
0 0.868421052631579 0
0 0.7631578947368423 0
0 0.6578947368421053 0
0 0.5526315789473686 0
-0.4982922465033349 0.041289672736166 0
-0.4931806517013612 0.08229729514036689 0
-0.4847001329696652 0.1227427435703994 0
-0.4729086208503174 0.1623497346023415 0
-0.4578866633275288 0.2008477123264846 0
-0.4397368756032448 0.2379736965185363 0
-0.4185832391312646 0.273474079061213 0
-0.3945702546981973 0.3071063563448332 0
-0.3678619553365665 0.3386407858128698 0
-0.3386407858128712 0.3678619553365652 0
-0.3071063563448347 0.3945702546981962 0
-0.2734740790612142 0.4185832391312638 0
-0.2379736965185374 0.4397368756032441 0
-0.2008477123264854 0.4578866633275285 0
-0.1623497346023423 0.4729086208503172 0
-0.1227427435704 0.4847001329696651 0
-0.08229729514036727 0.4931806517013612 0
-0.04128967273616637 0.4982922465033349 0
-0.4995728791936505 0.02066248712440638 0
-0.4961602898685226 0.0618463156346737 0
-0.4893584226636773 0.1026076710978169 0
-0.4792137412291265 0.1426681121245524 0
-0.4657955440256396 0.1817539852819147 0
-0.4491954909459896 0.2195982944236849 0
-0.4295269771849429 0.2559425245447999 0
-0.4069243586350979 0.2905384077009685 0
-0.3815420340999039 0.3231496189304696 0
-0.3535533905932745 0.3535533905932731 0
-0.3231496189304711 0.3815420340999027 0
-0.2905384077009701 0.4069243586350968 0
-0.2559425245448014 0.429526977184942 0
-0.219598294423686 0.449195490945989 0
-0.1817539852819157 0.4657955440256392 0
-0.1426681121245534 0.4792137412291261 0
-0.1026076710978177 0.4893584226636771 0
-0.06184631563467429 0.4961602898685225 0
-0.02066248712440698 0.4995728791936505 0
-4.743767313019391 2.368421052631579 0
-4.750692520775623 2.236842105263158 0
-4.757617728531856 2.105263157894737 0
-4.764542936288088 1.973684210526316 0
-4.771468144044322 1.842105263157895 0
-4.778393351800554 1.710526315789474 0
-4.785318559556787 1.578947368421053 0
-4.792243767313019 1.447368421052632 0
-4.799168975069252 1.315789473684211 0
-4.806094182825484 1.18421052631579 0
-4.813019390581718 1.052631578947368 0
-4.81994459833795 0.9210526315789473 0
-4.826869806094182 0.7894736842105265 0
-4.833795013850415 0.6578947368421051 0
-4.840720221606649 0.5263157894736838 0
-4.84764542936288 0.3947368421052635 0
-4.854570637119113 0.2631578947368423 0
-4.861495844875346 0.1315789473684212 0
-4.487534626038782 2.368421052631579 0
-4.501385041551247 2.236842105263158 0
-4.515235457063712 2.105263157894737 0
-4.529085872576177 1.973684210526316 0
-4.542936288088643 1.842105263157895 0
-4.556786703601109 1.710526315789474 0
-4.570637119113574 1.578947368421053 0
-4.584487534626039 1.447368421052632 0
-4.598337950138505 1.315789473684211 0
-4.61218836565097 1.18421052631579 0
-4.626038781163436 1.052631578947369 0
-4.6398891966759 0.9210526315789472 0
-4.653739612188366 0.7894736842105267 0
-4.667590027700832 0.6578947368421052 0
-4.681440443213297 0.5263157894736841 0
-4.695290858725762 0.3947368421052633 0
-4.709141274238227 0.263157894736842 0
-4.722991689750693 0.1315789473684215 0
-4.231301939058172 2.368421052631579 0
-4.252077562326869 2.236842105263158 0
-4.272853185595568 2.105263157894737 0
-4.293628808864265 1.973684210526316 0
-4.314404432132964 1.842105263157895 0
-4.335180055401662 1.710526315789474 0
-4.355955678670361 1.578947368421053 0
-4.376731301939058 1.447368421052632 0
-4.397506925207756 1.315789473684211 0
-4.418282548476454 1.18421052631579 0
-4.439058171745152 1.052631578947369 0
-4.45983379501385 0.9210526315789472 0
-4.480609418282548 0.7894736842105265 0
-4.501385041551247 0.6578947368421054 0
-4.522160664819944 0.5263157894736838 0
-4.542936288088643 0.3947368421052633 0
-4.563711911357341 0.2631578947368423 0
-4.584487534626039 0.1315789473684212 0
-3.975069252077562 2.368421052631579 0
-4.002770083102493 2.236842105263158 0
-4.030470914127424 2.105263157894737 0
-4.058171745152354 1.973684210526316 0
-4.085872576177286 1.842105263157895 0
-4.113573407202216 1.710526315789474 0
-4.141274238227147 1.578947368421053 0
-4.168975069252078 1.447368421052632 0
-4.196675900277008 1.315789473684211 0
-4.224376731301939 1.18421052631579 0
-4.252077562326869 1.052631578947369 0
-4.279778393351801 0.9210526315789476 0
[...]
CELL_DATA 862
SCALARS CellEntityIds int 1
LOOKUP_TABLE default
-1
-1
-1
-1
-1
-1
-1
-1
-1
-1
-1
-1
-1
-1
-1
-1
-1
-1
-1
-1
-1
-1
-1
-1
-1
-1
-1
-1
-1
-1
-1
-1
-1
-1
-1
-1
-1
-1
-1
-1
-1
-1
-1
-1
-1
1
1
1
1
1
1
1
1
1
1
1
1
1
1
1
1
1
1
1
7
7
7
7
7
7
7
7
7
7
7
7
7
7
7
7
7
7
7
7
7
7
7
7
7
7
7
7
7
7
7
7
7
7
7
7
7
7
5
5
5
5
5
5
5
5
5
5
5
5
5
5
5
5
5
5
5
-1
-1
-1
-1
-1
-1
-1
-1
-1
-1
-1
-1
-1
-1
-1
-1
-1
-1
-1
-1
-1
-1
-1
-1
-1
-1
-1
-1
-1
-1
-1
-1
-1
-1
-1
-1
-1
-1
-1
-1
-1
-1
-1
-1
-1
-1
-1
-1
-1
-1
-1
-1
-1
-1
-1
-1
-1
-1
-1
-1
-1
-1
-1
-1
-1
-1
-1
-1
-1
-1
-1
-1
-1
-1
-1
-1
-1
-1
-1
-1
-1
-1
-1
-1
-1
-1
-1
-1
-1
-1
-1
-1
-1
-1
-1
-1
-1
-1
-1
-1
-1
-1
-1
-1
-1
-1
-1
-1
-1
-1
-1
-1
-1
-1
-1
-1
-1
-1
-1
-1
-1
-1
-1
-1
-1
-1
-1
-1
-1
-1
-1
-1
-1
-1
-1
-1
-1
-1
-1
-1
-1
-1
-1
-1
-1
-1
-1
-1
-1
-1
-1
-1
-1
-1
-1
-1
-1
-1
-1
-1
-1
-1
-1
-1
-1
-1
-1
-1
-1
-1
-1
-1
-1
-1
-1
-1
-1
-1
-1
-1
-1
-1
-1
-1
-1
-1
-1
-1
-1
-1
-1
-1
-1
-1
-1
-1
-1
-1
-1
-1
-1
-1
-1
-1
-1
-1
-1
-1
-1
-1
-1
-1
-1
-1
-1
-1
-1
-1
-1
-1
-1
-1
-1
-1
-1
-1
-1
-1
-1
-1
-1
-1
-1
-1
-1
-1
-1
-1
-1
-1
-1
-1
-1
-1
-1
-1
-1
-1
-1
-1
-1
-1
-1
-1
-1
-1
-1
-1
-1
-1
-1
-1
-1
-1
-1
-1
-1
-1
-1
-1
-1
-1
-1
-1
-1
-1
-1
-1
-1
-1
-1
-1
-1
-1
-1
-1
-1
-1
-1
-1
-1
-1
-1
-1
-1
-1
-1
-1
-1
-1
-1
-1
-1
-1
-1
-1
-1
-1
-1
-1
-1
-1
-1
-1
-1
-1
-1
-1
-1
-1
-1
-1
-1
-1
-1
-1
-1
-1
-1
-1
-1
-1
-1
-1
-1
-1
-1
-1
-1
-1
-1
-1
-1
-1
-1
-1
-1
-1
-1
-1
-1
-1
-1
-1
-1
-1
-1
-1
-1
-1
-1
-1
-1
-1
-1
-1
-1
-1
-1
-1
-1
-1
-1
-1
-1
-1
-1
-1
-1
-1
-1
-1
-1
-1
-1
-1
-1
-1
-1
-1
-1
-1
-1
-1
-1
-1
-1
-1
-1
-1
-1
-1
-1
-1
-1
-1
-1
-1
-1
-1
-1
-1
-1
-1
-1
-1
-1
-1
-1
-1
-1
-1
-1
-1
-1
-1
-1
-1
-1
-1
-1
-1
-1
-1
-1
-1
-1
-1
-1
-1
-1
-1
-1
-1
-1
-1
-1
-1
-1
-1
-1
-1
-1
-1
-1
-1
-1
-1
-1
-1
-1
-1
-1
-1
-1
-1
-1
-1
-1
-1
-1
-1
-1
-1
-1
-1
-1
-1
-1
-1
-1
-1
-1
-1
-1
-1
-1
-1
-1
-1
-1
-1
-1
-1
-1
-1
-1
-1
-1
-1
-1
-1
-1
-1
-1
-1
-1
-1
-1
-1
-1
-1
-1
-1
-1
-1
-1
-1
-1
-1
-1
-1
-1
-1
-1
-1
-1
-1
-1
-1
-1
-1
-1
-1
-1
-1
-1
-1
-1
-1
-1
-1
-1
-1
-1
-1
-1
-1
-1
-1
-1
-1
-1
-1
-1
-1
-1
-1
-1
-1
-1
-1
-1
-1
-1
-1
-1
-1
-1
-1
-1
-1
-1
-1
-1
-1
-1
-1
-1
-1
-1
-1
-1
-1
-1
-1
-1
-1
-1
-1
-1
-1
-1
-1
-1
-1
-1
-1
-1
-1
-1
-1
-1
-1
-1
-1
-1
-1
-1
-1
-1
-1
-1
-1
-1
-1
-1
-1
-1
-1
-1
-1
-1
-1
-1
-1
-1
-1
-1
-1
-1
-1
-1
-1
-1
-1
-1
-1
-1
-1
-1
-1
-1
-1
-1
-1
-1
-1
-1
-1
-1
-1
-1
-1
-1
-1
-1
-1
-1
-1
-1
-1
-1
-1
-1
-1
-1
-1
-1
-1
-1
-1
-1
-1
-1
-1
-1
-1
-1
-1
-1
-1
-1
-1
-1
-1
-1
-1
-1
-1
-1
-1
-1
-1
-1
-1
-1
-1
-1
-1
-1
-1
-1
-1
-1
-1
-1
-1
-1
-1
-1
-1
-1
-1
-1
-1
-1
-1
-1
-1
-1
-1
-1
-1
-1
-1
-1
-1
-1
-1
-1
-1
-1
-1
-1
-1
-1
-1
-1
-1
-1
