# vtk DataFile Version 2.0
rectangle_with_circle, Created by Gmsh 4.11.1 
ASCII
DATASET UNSTRUCTURED_GRID
POINTS 1225 double
-5 -2.5 0
-5 2.5 0
5 -2.5 0
5 2.5 0
0 -2.5 0
0 2.5 0
0 -0.5 0
0 0.5 0
0 0 0
-5 0 0
5 0 0
-0.5 0 0
0.5 0 0
-5 2.083333333333333 0
-5 1.666666666666667 0
-5 1.25 0
-5 0.8333333333333333 0
-5 0.4166666666666665 0
-5 2.291666666666667 0
-5 1.875 0
-5 1.458333333333333 0
-5 1.041666666666667 0
-5 0.6249999999999998 0
-5 0.2083333333333335 0
-5 -2.083333333333333 0
-5 -1.666666666666667 0
-5 -1.25 0
-5 -0.8333333333333333 0
-5 -0.4166666666666665 0
-5 -2.291666666666667 0
-5 -1.875 0
-5 -1.458333333333333 0
-5 -1.041666666666667 0
-5 -0.6249999999999998 0
-5 -0.2083333333333335 0
-4.5 -2.5 0
-4 -2.5 0
-3.5 -2.5 0
-3 -2.5 0
-2.5 -2.5 0
-2 -2.5 0
-1.5 -2.5 0
-1 -2.5 0
-0.5 -2.5 0
-4.75 -2.5 0
-4.25 -2.5 0
-3.75 -2.5 0
-3.25 -2.5 0
-2.75 -2.5 0
-2.25 -2.5 0
-1.75 -2.5 0
-1.25 -2.5 0
-0.75 -2.5 0
-0.25 -2.5 0
0.5 -2.5 0
1 -2.5 0
1.5 -2.5 0
2 -2.5 0
2.5 -2.5 0
3 -2.5 0
3.5 -2.5 0
4 -2.5 0
4.5 -2.5 0
0.25 -2.5 0
0.75 -2.5 0
1.25 -2.5 0
1.75 -2.5 0
2.25 -2.5 0
2.75 -2.5 0
3.25 -2.5 0
3.75 -2.5 0
4.25 -2.5 0
4.75 -2.5 0
5 -2.083333333333333 0
5 -1.666666666666667 0
5 -1.25 0
5 -0.8333333333333333 0
5 -0.4166666666666665 0
5 -2.291666666666667 0
5 -1.875 0
5 -1.458333333333333 0
5 -1.041666666666667 0
5 -0.6249999999999998 0
5 -0.2083333333333335 0
5 0.4166666666666667 0
5 0.8333333333333334 0
5 1.25 0
5 1.666666666666667 0
5 2.083333333333333 0
5 0.2083333333333333 0
5 0.625 0
5 1.041666666666667 0
5 1.458333333333333 0
5 1.875 0
5 2.291666666666667 0
4.5 2.5 0
4 2.5 0
3.5 2.5 0
3 2.5 0
2.5 2.5 0
2 2.5 0
1.5 2.5 0
1 2.5 0
0.5 2.5 0
4.75 2.5 0
4.25 2.5 0
3.75 2.5 0
3.25 2.5 0
2.75 2.5 0
2.25 2.5 0
1.75 2.5 0
1.25 2.5 0
0.75 2.5 0
0.25 2.5 0
-0.5 2.5 0
-1 2.5 0
-1.5 2.5 0
-2 2.5 0
-2.5 2.5 0
-3 2.5 0
-3.5 2.5 0
-4 2.5 0
-4.5 2.5 0
-0.25 2.5 0
-0.75 2.5 0
-1.25 2.5 0
-1.75 2.5 0
-2.25 2.5 0
-2.75 2.5 0
-3.25 2.5 0
-3.75 2.5 0
-4.25 2.5 0
-4.75 2.5 0
0 2 0
0 1.5 0
0 1 0
0 2.25 0
0 1.75 0
0 1.25 0
0 0.75 0
4.55 0 0
4.1 0 0
3.65 0 0
3.2 0 0
2.75 0 0
2.3 0 0
1.85 0 0
1.4 0 0
0.9500000000000002 0 0
4.775 0 0
4.325 0 0
3.875 0 0
3.425 0 0
2.975 0 0
2.525 0 0
2.075 0 0
1.625 0 0
1.175 0 0
0.7249999999999996 0 0
0 -2 0
0 -1.5 0
0 -1 0
0 -2.25 0
0 -1.75 0
0 -1.25 0
0 -0.75 0
-4.55 0 0
-4.1 0 0
-3.65 0 0
-3.2 0 0
-2.75 0 0
-2.3 0 0
-1.85 0 0
-1.4 0 0
-0.9500000000000002 0 0
-4.775 0 0
-4.325 0 0
-3.875 0 0
-3.425 0 0
-2.975 0 0
-2.525 0 0
-2.075 0 0
-1.625 0 0
-1.175 0 0
-0.7249999999999996 0 0
-0.3535533905932738 0.3535533905932737 0
-0.4619397662556434 0.1913417161825448 0
-0.1913417161825448 0.4619397662556434 0
0.3535533905932738 0.3535533905932737 0
0.4619397662556434 0.1913417161825448 0
0.1913417161825448 0.4619397662556434 0
0.3535533905932737 -0.3535533905932738 0
0.1913417161825449 -0.4619397662556434 0
0.4619397662556434 -0.1913417161825449 0
-0.3535533905932737 -0.3535533905932738 0
-0.1913417161825449 -0.4619397662556434 0
-0.4619397662556434 -0.1913417161825449 0
-1.282857301561365 1.359176378469262 0
-3.731875651986885 1.032938828617556 0
-2.487212942190764 1.203028036678423 0
-3.143926839179334 0.6942667371476718 0
-4.234936325696242 0.7180086436137337 0
-1.600324279957392 0.6396625614846128 0
-3.087974095588342 1.855742684968572 0
-1.93198007274973 1.842586815048427 0
-4.396234380241725 1.750708335292787 0
-1.049125484585324 0.8528081212146534 0
-0.8746459917226381 1.602885306235768 0
-2.441015330085545 0.662423859650848 0
-2.503964325367901 1.954211344456822 0
-3.539088735850237 0.453453676430367 0
-0.5253243815119935 1.132570833919879 0
-4.503679831907695 1.289385119479393 0
-3.547867339273772 2.082995704406693 0
-1.382679942247631 1.953661487398183 0
-3.127484880240998 1.195580853941413 0
-1.838261017663335 1.236601342662593 0
-0.6584843839542538 0.7557469992024133 0
-1.990105477477557 0.3661314041696324 0
-4.607214285024364 0.3982537436740662 0
-2.783487502027097 0.3793909946820266 0
-0.8005418526107759 0.3883377741379219 0
-4.71146838738394 1.905987981144921 0
-4.594514678959831 0.8090114716428368 0
-3.238277359604283 2.112086993725588 0
-2.0882302477843 0.81886581678861 0
-2.147764672595064 2.076993164972751 0
-1.44705134516557 1.014810245573131 0
-2.860545261117336 2.083422584616645 0
-1.763508228996192 2.074619089930868 0
-3.16514719289106 0.3966497552253956 0
-2.79298981098188 0.8174598701572893 0
-4.113873403528568 1.171762490888525 0
-3.375069563662444 0.8455760898066089 0
-2.81534664111027 1.53335019323609 0
-0.4663348680942678 2.022629220688903 0
-1.618906122955538 1.581754513537731 0
-3.504115386866718 1.558078705229812 0
-4.014701088466615 1.639845874052408 0
-2.184889469181079 1.538545665212013 0
-0.4616020293615724 1.560763483828423 0
-3.984678380434909 2.085999565424956 0
-1.202446028758716 0.4868188290020409 0
-4.757680950119905 1.644973919058764 0
-0.9205339344668622 2.027884836807031 0
-0.9294236318033724 1.230331209315892 0
-4.394143069684524 2.139671668099641 0
-1.682653248965838 0.3673300229300309 0
-2.380407913513006 0.3706207200074894 0
-4.678199180679197 2.158621526334898 0
-0.3705987498332339 0.6912194670659954 0
-3.891934412729945 0.5701609406448332 0
-1.168804048302516 1.626715203526077 0
-4.325102239034694 0.4002345206874178 0
-4.064287245997591 1.405804182470467 0
-4.20546773435417 1.695277104672598 0
-4.449957106074709 1.52004672738609 0
-4.308776617718131 1.230573805183959 0
-4.257122176036151 1.462925454928278 0
-4.803607142512182 0.4074602051703664 0
-4.600864481992097 0.6036326076584515 0
-4.797257339479915 0.8211724024880851 0
-4.800432240996049 0.6143163038292258 0
-1.151606938357246 1.990773162102607 0
-0.960266967233431 2.263942418403516 0
-1.441339971123815 2.226830743699091 0
-1.200803469178623 2.245386581051303 0
-2.336051205685922 1.370786850945218 0
-2.344426897274491 1.746378504834417 0
-2.659655483239086 1.743780768846456 0
-2.651279791650517 1.368189114957256 0
-2.497853344462504 1.557283809895837 0
-0.2626621907559965 1.06628541695994 0
-0.230801014680786 1.530381741914211 0
-0.4934632054367829 1.346667158874151 0
-0.2467316027183912 1.298333579437075 0
-3.523933669636886 2.291497852203347 0
-3.992339190217455 2.292999782712478 0
-3.76627285985434 2.084497634915825 0
-3.75813642992717 2.292248817457912 0
-0.5919043827331236 0.9441589165611464 0
-0.5145415668937439 0.7234832331342043 0
-0.185299374916617 0.8456097335329977 0
-0.3886018788248702 0.8948843250470719 0
-2.682254793242619 2.018816964536733 0
-2.974259678352839 1.969582634792609 0
-2.951660368349306 1.694546439102331 0
-2.816957580795962 1.856681701819532 0
-3.154537016035198 0.5454582461865337 0
-3.259498201420889 0.7699214134771404 0
-3.45707914975634 0.649514883118488 0
-3.352117964370649 0.4250517158278813 0
-3.305808082895769 0.5974865646525109 0
-4.751839915953847 1.269692559739697 0
-4.549097255433763 1.049198295561115 0
-4.774548627716881 1.045432481113891 0
-0.4639684487279201 1.791696352258663 0
-0.2331674340471341 2.011314610344451 0
-0.23198422436396 1.770848176129331 0
-3.715511574290091 0.5118073085376001 0
-3.995967206364972 0.2850804703224166 0
-3.594544367925119 0.2267268382151835 0
-3.795255787145045 0.2559036542688 0
-4.174404864612405 0.9448855672511294 0
-4.414725502328037 0.7635100576282853 0
-4.361751060023083 0.9970419314061223 0
-1.500793032601585 1.767708000467957 0
-1.573094085621911 2.014140288664525 0
-1.847744150872961 1.958602952489648 0
-1.775443097852634 1.712170664293079 0
-1.674268591737273 1.863155476478803 0
-3.163125727596312 1.98391483934708 0
-3.393072349439028 2.097541349066141 0
-3.525991363070245 1.820537204818252 0
-3.29604474122753 1.706910695099192 0
-3.344558545333279 1.902226022082666 0
-0.4831674340471341 2.261314610344451 0
-0.6934344012805651 2.025257028747967 0
-0.7217172006402826 2.262628514373984 0
-0.2415837170235671 2.255657305172226 0
-2.325864498981483 2.015602254714786 0
-2.073882336297532 2.288496582486376 0
-2.501982162683951 2.227105672228411 0
-2.287932249490741 2.257801127357393 0
-2.930272630558668 2.291711292308323 0
-2.716127396621309 2.259408482268367 0
-0.8975899630947501 1.8153850715214 0
-1.275741995275073 1.79018834546213 0
-1.021725020012577 1.614800254880923 0
-1.086665979184912 1.802786708491765 0
-0.9892745581943481 1.041569665265273 0
-1.106140466682369 1.294753793892577 0
-1.364954323363468 1.186993312021196 0
-1.248088414875447 0.9338091833938921 0
-1.177114440778908 1.114281488643235 0
-1.401385154358054 0.5632406952433269 0
-1.641488764461615 0.5034962922073218 0
-1.541326624482919 0.1836650114650156 0
-1.301223014379358 0.2434094145010204 0
-1.471355889420486 0.3734528533541711 0
-2.039872372672397 1.959789990010589 0
-2.058434770965405 1.69056624013022 0
-2.192149634973444 1.853084247422503 0
-1.523687812561481 0.8272364035288717 0
-1.12578575667202 0.6698134751083472 0
-1.32473678461675 0.7485249393186095 0
-0.8538049342697887 0.8042775602085334 0
-0.727374006657683 1.181451021617886 0
-0.790589470463736 0.9928642909132097 0
-2.788238656504488 0.598425432419658 0
-2.581947707770051 0.375005857344758 0
-2.410711621799275 0.5165222898291687 0
-2.617002570533712 0.7399418649040687 0
-2.599475139151882 0.5574738611244134 0
-4.466158262029529 0.3992441321807421 0
-4.280019282365467 0.5591215821505757 0
-4.440441882178783 0.5813770949045136 0
-2.264622788934922 0.740644838219729 0
-2.185256695495282 0.3683760620885609 0
-2.039167862630928 0.5924986104791212 0
-2.224939742215102 0.554510450154145 0
-2.968458325080607 0.7558633036524806 0
-2.974317347459078 0.3880203749537111 0
-2.971387836269843 0.5719418393030958 0
-1.881754114498096 2.287309544965434 0
-1.661547042810956 2.257070144332263 0
-3.18257359644553 0.1983248776126978 0
-3.388558982185324 0.2125258579139406 0
-4.553851383812833 1.828348158218854 0
-4.734574668751923 1.775480950101842 0
-4.630680391013799 1.467179519269078 0
-4.592265887413316 1.647763838743966 0
-1.642656181414453 1.125705794117862 0
-1.963245632723818 1.027733579725602 0
[...]
CELL_DATA 401
SCALARS CellEntityIds int 1
LOOKUP_TABLE default
-1
-1
-1
-1
-1
-1
-1
-1
1
-1
-1
-1
-1
1
1
1
1
1
1
1
1
1
1
1
1
-1
-1
-1
-1
-1
-1
-1
-1
-1
-1
-1
-1
-1
-1
-1
-1
-1
-1
-1
-1
-1
-1
-1
-1
-1
-1
-1
-1
-1
-1
-1
-1
-1
-1
-1
-1
-1
-1
-1
-1
-1
-1
-1
-1
-1
-1
-1
-1
-1
-1
-1
-1
-1
-1
-1
-1
-1
-1
-1
-1
-1
-1
-1
-1
-1
-1
-1
-1
-1
-1
-1
-1
-1
-1
-1
-1
-1
-1
-1
-1
-1
-1
5
5
5
5
-1
-1
-1
-1
-1
-1
-1
-1
-1
-1
-1
-1
-1
-1
-1
-1
-1
-1
-1
-1
-1
-1
-1
-1
-1
-1
-1
-1
-1
-1
-1
-1
-1
-1
-1
-1
-1
-1
-1
-1
-1
-1
-1
-1
-1
-1
-1
-1
-1
-1
-1
-1
-1
-1
-1
-1
-1
-1
-1
-1
-1
-1
-1
-1
-1
-1
-1
-1
-1
-1
-1
-1
-1
-1
-1
-1
-1
-1
-1
-1
-1
-1
-1
-1
-1
-1
-1
-1
-1
-1
-1
-1
-1
-1
-1
-1
-1
-1
-1
-1
-1
-1
-1
-1
-1
-1
-1
-1
-1
-1
-1
-1
-1
-1
-1
-1
-1
-1
-1
-1
-1
-1
-1
-1
-1
-1
-1
-1
-1
-1
-1
-1
-1
-1
-1
-1
-1
-1
-1
-1
-1
-1
-1
-1
-1
-1
-1
-1
-1
-1
-1
-1
-1
-1
-1
-1
-1
-1
-1
-1
-1
-1
-1
-1
-1
-1
-1
-1
-1
-1
-1
-1
-1
-1
-1
-1
-1
-1
-1
-1
-1
-1
-1
-1
-1
-1
-1
-1
-1
-1
-1
-1
-1
-1
-1
-1
-1
-1
-1
-1
-1
-1
-1
-1
-1
-1
-1
-1
-1
-1
-1
-1
-1
-1
-1
-1
-1
-1
-1
-1
-1
-1
-1
-1
-1
-1
-1
-1
-1
-1
-1
-1
-1
-1
-1
-1
-1
-1
-1
-1
-1
-1
-1
-1
-1
-1
-1
-1
-1
-1
-1
-1
-1
-1
-1
-1
-1
-1
-1
-1
-1
-1
-1
-1
-1
-1
-1
-1
-1
-1
-1
-1
-1
-1
-1
-1
-1
-1
-1
-1
-1
-1
-1
-1
-1
-1
-1
-1
-1
-1
