# vtk DataFile Version 2.0
rectangle_ц_с_ыекгсе, Created by Gmsh 4.11.1 
ASCII
DATASET UNSTRUCTURED_GRID
POINTS 4942 double
-4 2.5 0
0 2.5 0
0 0.1 0
0 0 0
-4 0 0
-0.1 0 0
-2 0 0
-3.6 2.5 0
-3.2 2.5 0
-2.8 2.5 0
-2.4 2.5 0
-2 2.5 0
-1.6 2.5 0
-1.2 2.5 0
-0.7999999999999998 2.5 0
-0.3999999999999999 2.5 0
-3.8 2.5 0
-3.4 2.5 0
-3 2.5 0
-2.6 2.5 0
-2.2 2.5 0
-1.8 2.5 0
-1.399999999999999 2.5 0
-1 2.5 0
-0.5999999999999996 2.5 0
-0.2000000000000002 2.5 0
-1.95 0.06250000000000001 0
-1.9 0.125 0
-1.85 0.1875000000000001 0
-1.8 0.2500000000000001 0
-1.75 0.3125 0
-1.7 0.3750000000000001 0
-1.65 0.4375000000000001 0
-1.6 0.5000000000000001 0
-1.55 0.5625 0
-1.5 0.625 0
-1.45 0.6875000000000001 0
-1.4 0.7500000000000002 0
-1.35 0.8125000000000001 0
-1.3 0.8750000000000001 0
-1.25 0.9375 0
-1.2 1 0
-1.15 1.0625 0
-1.1 1.125 0
-1.05 1.1875 0
-1 1.25 0
-0.95 1.3125 0
-0.8999999999999999 1.375 0
-0.8499999999999999 1.4375 0
-0.7999999999999998 1.5 0
-0.75 1.5625 0
-0.7 1.625 0
-0.6499999999999999 1.6875 0
-0.5999999999999999 1.75 0
-0.5499999999999998 1.8125 0
-0.5 1.875 0
-0.45 1.9375 0
-0.3999999999999999 2 0
-0.3499999999999999 2.0625 0
-0.2999999999999998 2.125 0
-0.25 2.1875 0
-0.2 2.25 0
-0.1499999999999999 2.3125 0
-0.09999999999999987 2.375 0
-0.04999999999999982 2.4375 0
-1.975 0.03125000000000001 0
-1.925 0.09375000000000001 0
-1.875 0.15625 0
-1.825 0.21875 0
-1.775 0.28125 0
-1.725 0.3437500000000001 0
-1.675 0.4062500000000001 0
-1.625 0.4687500000000001 0
-1.575 0.5312500000000001 0
-1.525 0.5937500000000001 0
-1.475 0.6562500000000001 0
-1.425 0.7187500000000001 0
-1.375 0.78125 0
-1.325 0.8437500000000001 0
-1.275 0.90625 0
-1.225 0.9687500000000001 0
-1.175 1.03125 0
-1.125 1.09375 0
-1.075 1.15625 0
-1.025 1.21875 0
-0.9749999999999999 1.28125 0
-0.9249999999999998 1.34375 0
-0.8749999999999998 1.40625 0
-0.8249999999999997 1.46875 0
-0.7749999999999999 1.53125 0
-0.7250000000000001 1.59375 0
-0.6749999999999998 1.65625 0
-0.625 1.71875 0
-0.5749999999999997 1.78125 0
-0.5249999999999999 1.84375 0
-0.4750000000000001 1.90625 0
-0.4249999999999998 1.96875 0
-0.375 2.03125 0
-0.3249999999999997 2.09375 0
-0.2749999999999999 2.15625 0
-0.2250000000000001 2.21875 0
-0.1749999999999998 2.28125 0
-0.125 2.34375 0
-0.07499999999999973 2.40625 0
-0.02499999999999991 2.46875 0
-4 2.4375 0
-4 2.375 0
-4 2.3125 0
-4 2.25 0
-4 2.1875 0
-4 2.125 0
-4 2.0625 0
-4 2 0
-4 1.9375 0
-4 1.875 0
-4 1.8125 0
-4 1.75 0
-4 1.6875 0
-4 1.625 0
-4 1.5625 0
-4 1.5 0
-4 1.4375 0
-4 1.375 0
-4 1.3125 0
-4 1.25 0
-4 1.1875 0
-4 1.125 0
-4 1.0625 0
-4 0.9999999999999998 0
-4 0.9375 0
-4 0.875 0
-4 0.8125 0
-4 0.7499999999999998 0
-4 0.6874999999999998 0
-4 0.625 0
-4 0.5625 0
-4 0.5 0
-4 0.4375 0
-4 0.375 0
-4 0.3125 0
-4 0.25 0
-4 0.1875 0
-4 0.125 0
-4 0.0625 0
-4 2.46875 0
-4 2.40625 0
-4 2.34375 0
-4 2.28125 0
-4 2.21875 0
-4 2.15625 0
-4 2.09375 0
-4 2.03125 0
-4 1.96875 0
-4 1.90625 0
-4 1.84375 0
-4 1.78125 0
-4 1.71875 0
-4 1.65625 0
-4 1.59375 0
-4 1.53125 0
-4 1.46875 0
-4 1.40625 0
-4 1.34375 0
-4 1.28125 0
-4 1.21875 0
-4 1.15625 0
-4 1.09375 0
-4 1.03125 0
-4 0.9687499999999998 0
-4 0.90625 0
-4 0.84375 0
-4 0.78125 0
-4 0.7187499999999998 0
-4 0.6562499999999998 0
-4 0.59375 0
-4 0.53125 0
-4 0.46875 0
-4 0.40625 0
-4 0.34375 0
-4 0.28125 0
-4 0.21875 0
-4 0.15625 0
-4 0.09375 0
-4 0.03125 0
-3.8 0 0
-3.6 0 0
-3.4 0 0
-3.2 0 0
-3 0 0
-2.8 0 0
-2.6 0 0
-2.4 0 0
-2.2 0 0
-3.9 0 0
-3.7 0 0
-3.5 0 0
-3.3 0 0
-3.1 0 0
-2.9 0 0
-2.7 0 0
-2.5 0 0
-2.3 0 0
-2.1 0 0
-1.429544688412025 0 0
-1.030226013298198 0 0
-0.7507029665701168 0 0
-0.5550368494084796 0 0
-0.4180705859232434 0 0
-0.3221942119050163 0 0
-0.2550807539897988 0 0
-0.2081013387255244 0 0
-0.1752157474871663 0 0
-0.15219583747979 0 0
-0.1360819014775265 0 0
-0.1248021503754366 0 0
-0.1169063206786902 0 0
-0.1113792413901005 0 0
-0.1075102894855791 0 0
-0.1048020265200242 0 0
-0.1029062382461758 0 0
-0.1015791850371068 0 0
-0.1006502506585625 0 0
-1.714772344206012 0 0
-1.229885350855111 0 0
-0.8904644899341572 0 0
-0.6528699079892983 0 0
-0.4865537176658616 0 0
-0.3701323989141299 0 0
-0.2886374829474074 0 0
-0.2315910463576616 0 0
-0.1916585431063453 0 0
-0.1637057924834782 0 0
-0.1441388694786583 0 0
-0.1304420259264816 0 0
-0.1208542355270634 0 0
-0.1141427810343953 0 0
-0.1094447654378397 0 0
-0.1061561580028016 0 0
-0.1038541323831002 0 0
-0.1022427116416413 0 0
-0.1011147178478347 0 0
-0.1003251253292812 0 0
0 1.779424869573081 0
0 1.275022332587193 0
0 0.921940589351723 0
0 0.6747833887264965 0
0 0.5017733716925141 0
0 0.3806663729326485 0
0 0.2958914787239539 0
0 0.2365490594427659 0
0 0.1950093652469449 0
0 0.1659315841849964 0
0 0.145577138708453 0
0 0.1313290320531819 0
0 0.1213553524362396 0
0 0.1143737785980212 0
0 0.109486681455468 0
0 0.1060657177095039 0
0 0.1036710377846433 0
0 0.101994760046872 0
0 0.100821369252921 0
0 2.13971243478654 0
0 1.527223601080137 0
0 1.098481460969458 0
0 0.7983619890391096 0
0 0.5882783802095053 0
0 0.4412198723125815 0
0 0.3382789258283014 0
0 0.2662202690833597 0
0 0.2157792123448554 0
0 0.1804704747159707 0
0 0.1557543614467245 0
0 0.1384530853808172 0
0 0.126342192244711 0
0 0.1178645655171304 0
0 0.1119302300267444 0
0 0.107776199582486 0
0 0.1048683777470738 0
0 0.1028328989157576 0
0 0.1014080646498963 0
0 0.1004106846264605 0
-0.0999229036240723 0.003925981575906827 0
-0.0996917333733128 0.007845909572784483 0
-0.09930684569549264 0.01175373974578373 0
-0.09876883405951378 0.01564344650402303 0
-0.09807852804032306 0.01950903220161279 0
-0.09723699203976768 0.02334453638559049 0
-0.09624552364536476 0.02714404498650735 0
-0.0951056516295154 0.03090169943749465 0
-0.09381913359224847 0.03461170570774918 0
-0.09238795325112872 0.03826834323650889 0
-0.09081431738250818 0.0418659737537427 0
-0.08910065241883686 0.04539904997395455 0
-0.0872496007072798 0.04886212414969535 0
-0.08526401643540932 0.05224985647159473 0
-0.08314696123025465 0.05555702330196004 0
-0.08090169943749487 0.05877852522924716 0
-0.07853169308807463 0.06190939493098323 0
-0.07604059656000325 0.06494480483301819 0
-0.07343225094356874 0.06788007455329398 0
-0.07071067811865493 0.07071067811865459 0
-0.06788007455329437 0.07343225094356838 0
-0.06494480483301855 0.07604059656000295 0
-0.06190939493098357 0.07853169308807437 0
-0.05877852522924755 0.08090169943749459 0
-0.05555702330196044 0.08314696123025439 0
-0.05224985647159509 0.0852640164354091 0
-0.04886212414969569 0.08724960070727961 0
-0.04539904997395486 0.0891006524188367 0
-0.04186597375374296 0.09081431738250806 0
-0.03826834323650912 0.09238795325112863 0
-0.03461170570774942 0.09381913359224837 0
-0.03090169943749485 0.09510565162951533 0
-0.02714404498650751 0.09624552364536471 0
-0.0233445363855906 0.09723699203976766 0
-0.01950903220161295 0.09807852804032302 0
-0.01564344650402319 0.09876883405951375 0
-0.01175373974578385 0.09930684569549263 0
-0.007845909572784558 0.0996917333733128 0
-0.003925981575906901 0.0999229036240723 0
-0.09998072404820649 0.001963369246062829 0
-0.09982656101847159 0.00588708036511888 0
-0.09951847266721969 0.009801714032956059 0
-0.09905693404435773 0.01370123416819678 0
-0.09844265680898917 0.0175796279934354 0
-0.09767658813208725 0.02143091530650505 0
-0.096759909236026 0.02524915770151575 0
-0.09569403357322091 0.02902846772544617 0
-0.09448060464668784 0.03276301795616927 0
-0.0931214934758804 0.03644704998791486 0
-0.09161879571171364 0.04007488331031402 0
-0.0899748284052222 0.04364092406733411 0
-0.08819212643483558 0.04713967368259964 0
-0.08627343859777926 0.05056573733779832 0
-0.08422172337162875 0.05391383229109988 0
-0.08204014435255148 0.05717879602276106 0
-0.07973206537727083 0.060355594195357 0
-0.07730104533627383 0.06343932841636439 0
-0.07475083268625983 0.06642524379112801 0
-0.07208535967029205 0.06930873625456341 0
-0.06930873625456375 0.07208535967029173 0
-0.06642524379112837 0.07475083268625952 0
-0.06343932841636472 0.07730104533627356 0
-0.06035559419535738 0.07973206537727054 0
-0.05717879602276145 0.08204014435255121 0
-0.05391383229110023 0.08422172337162853 0
-0.05056573733779866 0.08627343859777907 0
-0.04713967368259995 0.08819212643483541 0
-0.04364092406733438 0.08997482840522207 0
-0.04007488331031425 0.09161879571171354 0
-0.0364470499879151 0.09312149347588031 0
-0.03276301795616946 0.09448060464668777 0
-0.02902846772544633 0.09569403357322087 0
-0.02524915770151587 0.09675990923602597 0
-0.02143091530650521 0.09767658813208722 0
-0.01757962799343557 0.09844265680898916 0
-0.0137012341681969 0.09905693404435773 0
-0.009801714032956134 0.09951847266721969 0
-0.005887080365118955 0.09982656101847159 0
-0.00196336924606286 0.09998072404820649 0
-3.605 2.4375 0
-3.61 2.375 0
-3.615 2.3125 0
-3.62 2.25 0
-3.625 2.1875 0
-3.63 2.125 0
-3.635 2.0625 0
-3.64 2 0
-3.645 1.9375 0
-3.65 1.875 0
-3.655 1.8125 0
-3.66 1.75 0
-3.665 1.6875 0
-3.67 1.625 0
-3.675 1.5625 0
-3.68 1.5 0
-3.685 1.4375 0
-3.69 1.375 0
-3.695 1.3125 0
-3.7 1.25 0
-3.705 1.1875 0
-3.71 1.125 0
-3.715 1.0625 0
-3.72 0.9999999999999999 0
-3.725 0.9375 0
-3.73 0.875 0
-3.735 0.8125000000000001 0
-3.74 0.7499999999999996 0
-3.745 0.6874999999999998 0
-3.75 0.6249999999999999 0
-3.755 0.5624999999999998 0
-3.76 0.5000000000000003 0
-3.765 0.4375 0
-3.77 0.3750000000000002 0
-3.774999999999999 0.3125 0
-3.78 0.2500000000000002 0
-3.785 0.1874999999999998 0
-3.79 0.1249999999999998 0
-3.795 0.06249999999999978 0
-3.21 2.4375 0
-3.22 2.375 0
-3.23 2.3125 0
-3.24 2.25 0
-3.25 2.1875 0
-3.26 2.125 0
-3.27 2.0625 0
-3.28 2 0
-3.29 1.9375 0
-3.3 1.875 0
-3.31 1.8125 0
-3.32 1.75 0
-3.33 1.6875 0
-3.34 1.625 0
-3.35 1.5625 0
-3.36 1.5 0
-3.37 1.4375 0
-3.38 1.375 0
-3.39 1.3125 0
-3.4 1.25 0
-3.41 1.1875 0
-3.42 1.125 0
-3.43 1.0625 0
-3.44 0.9999999999999999 0
-3.45 0.9375 0
-3.46 0.875 0
-3.47 0.8125 0
-3.48 0.7499999999999998 0
-3.49 0.6874999999999997 0
-3.5 0.6249999999999999 0
-3.51 0.5625 0
-3.52 0.5000000000000002 0
-3.53 0.4375 0
-3.54 0.375 0
[...]
CELL_DATA 1387
SCALARS CellEntityIds int 1
LOOKUP_TABLE default
-1
-1
-1
-1
-1
-1
-1
-1
-1
-1
-1
-1
-1
-1
-1
-1
-1
-1
-1
-1
-1
-1
-1
-1
-1
-1
-1
-1
-1
-1
-1
-1
-1
-1
-1
-1
-1
-1
-1
-1
-1
-1
-1
-1
-1
-1
-1
-1
-1
-1
-1
-1
-1
-1
-1
-1
-1
1
1
1
1
1
1
1
1
1
1
1
1
1
1
1
1
1
1
1
1
1
1
1
1
1
1
1
1
1
1
1
1
1
1
1
1
1
1
1
1
7
7
7
7
7
7
7
7
7
7
7
7
7
7
7
7
7
7
7
7
7
7
7
7
7
7
7
7
7
7
5
5
5
5
5
5
5
5
5
5
5
5
5
5
5
5
5
5
5
5
-1
-1
-1
-1
-1
-1
-1
-1
-1
-1
-1
-1
-1
-1
-1
-1
-1
-1
-1
-1
-1
-1
-1
-1
-1
-1
-1
-1
-1
-1
-1
-1
-1
-1
-1
-1
-1
-1
-1
-1
-1
-1
-1
-1
-1
-1
-1
-1
-1
-1
-1
-1
-1
-1
-1
-1
-1
-1
-1
-1
-1
-1
-1
-1
-1
-1
-1
-1
-1
-1
-1
-1
-1
-1
-1
-1
-1
-1
-1
-1
-1
-1
-1
-1
-1
-1
-1
-1
-1
-1
-1
-1
-1
-1
-1
-1
-1
-1
-1
-1
-1
-1
-1
-1
-1
-1
-1
-1
-1
-1
-1
-1
-1
-1
-1
-1
-1
-1
-1
-1
-1
-1
-1
-1
-1
-1
-1
-1
-1
-1
-1
-1
-1
-1
-1
-1
-1
-1
-1
-1
-1
-1
-1
-1
-1
-1
-1
-1
-1
-1
-1
-1
-1
-1
-1
-1
-1
-1
-1
-1
-1
-1
-1
-1
-1
-1
-1
-1
-1
-1
-1
-1
-1
-1
-1
-1
-1
-1
-1
-1
-1
-1
-1
-1
-1
-1
-1
-1
-1
-1
-1
-1
-1
-1
-1
-1
-1
-1
-1
-1
-1
-1
-1
-1
-1
-1
-1
-1
-1
-1
-1
-1
-1
-1
-1
-1
-1
-1
-1
-1
-1
-1
-1
-1
-1
-1
-1
-1
-1
-1
-1
-1
-1
-1
-1
-1
-1
-1
-1
-1
-1
-1
-1
-1
-1
-1
-1
-1
-1
-1
-1
-1
-1
-1
-1
-1
-1
-1
-1
-1
-1
-1
-1
-1
-1
-1
-1
-1
-1
-1
-1
-1
-1
-1
-1
-1
-1
-1
-1
-1
-1
-1
-1
-1
-1
-1
-1
-1
-1
-1
-1
-1
-1
-1
-1
-1
-1
-1
-1
-1
-1
-1
-1
-1
-1
-1
-1
-1
-1
-1
-1
-1
-1
-1
-1
-1
-1
-1
-1
-1
-1
-1
-1
-1
-1
-1
-1
-1
-1
-1
-1
-1
-1
-1
-1
-1
-1
-1
-1
-1
-1
-1
-1
-1
-1
-1
-1
-1
-1
-1
-1
-1
-1
-1
-1
-1
-1
-1
-1
-1
-1
-1
-1
-1
-1
-1
-1
-1
-1
-1
-1
-1
-1
-1
-1
-1
-1
-1
-1
-1
-1
-1
-1
-1
-1
-1
-1
-1
-1
-1
-1
-1
-1
-1
-1
-1
-1
-1
-1
-1
-1
-1
-1
-1
-1
-1
-1
-1
-1
-1
-1
-1
-1
-1
-1
-1
-1
-1
-1
-1
-1
-1
-1
-1
-1
-1
-1
-1
-1
-1
-1
-1
-1
-1
-1
-1
-1
-1
-1
-1
-1
-1
-1
-1
-1
-1
-1
-1
-1
-1
-1
-1
-1
-1
-1
-1
-1
-1
-1
-1
-1
-1
-1
-1
-1
-1
-1
-1
-1
-1
-1
-1
-1
-1
-1
-1
-1
-1
-1
-1
-1
-1
-1
-1
-1
-1
-1
-1
-1
-1
-1
-1
-1
-1
-1
-1
-1
-1
-1
-1
-1
-1
-1
-1
-1
-1
-1
-1
-1
-1
-1
-1
-1
-1
-1
-1
-1
-1
-1
-1
-1
-1
-1
-1
-1
-1
-1
-1
-1
-1
-1
-1
-1
-1
-1
-1
-1
-1
-1
-1
-1
-1
-1
-1
-1
-1
-1
-1
-1
-1
-1
-1
-1
-1
-1
-1
-1
-1
-1
-1
-1
-1
-1
-1
-1
-1
-1
-1
-1
-1
-1
-1
-1
-1
-1
-1
-1
-1
-1
-1
-1
-1
-1
-1
-1
-1
-1
-1
-1
-1
-1
-1
-1
-1
-1
-1
-1
-1
-1
-1
-1
-1
-1
-1
-1
-1
-1
-1
-1
-1
-1
-1
-1
-1
-1
-1
-1
-1
-1
-1
-1
-1
-1
-1
-1
-1
-1
-1
-1
-1
-1
-1
-1
-1
-1
-1
-1
-1
-1
-1
-1
-1
-1
-1
-1
-1
-1
-1
-1
-1
-1
-1
-1
-1
-1
-1
-1
-1
-1
-1
-1
-1
-1
-1
-1
-1
-1
-1
-1
-1
-1
-1
-1
-1
-1
-1
-1
-1
-1
-1
-1
-1
-1
-1
-1
-1
-1
-1
-1
-1
-1
-1
-1
-1
-1
-1
-1
-1
-1
-1
-1
-1
-1
-1
-1
-1
-1
-1
-1
-1
-1
-1
-1
-1
-1
-1
-1
-1
-1
-1
-1
-1
-1
-1
-1
-1
-1
-1
-1
-1
-1
-1
-1
-1
-1
-1
-1
-1
-1
-1
-1
-1
-1
-1
-1
-1
-1
-1
-1
-1
-1
-1
-1
-1
-1
-1
-1
-1
-1
-1
-1
-1
-1
-1
-1
-1
-1
-1
-1
-1
-1
-1
-1
-1
-1
-1
-1
-1
-1
-1
-1
-1
-1
-1
-1
-1
-1
-1
-1
-1
-1
-1
-1
-1
-1
-1
-1
-1
-1
-1
-1
-1
-1
-1
-1
-1
-1
-1
-1
-1
-1
-1
-1
-1
-1
-1
-1
-1
-1
-1
-1
-1
-1
-1
-1
-1
-1
-1
-1
-1
-1
-1
-1
-1
-1
-1
-1
-1
-1
-1
-1
-1
-1
-1
-1
-1
-1
-1
-1
-1
-1
-1
-1
-1
-1
-1
-1
-1
-1
-1
-1
-1
-1
-1
-1
-1
-1
-1
-1
-1
-1
-1
-1
-1
-1
-1
-1
-1
-1
-1
-1
-1
-1
-1
-1
-1
-1
-1
-1
-1
-1
-1
-1
-1
-1
-1
-1
-1
-1
-1
-1
-1
-1
-1
-1
-1
-1
-1
-1
-1
-1
-1
-1
-1
-1
-1
-1
-1
-1
-1
-1
-1
-1
-1
-1
-1
-1
-1
-1
-1
-1
-1
-1
-1
-1
-1
-1
-1
-1
-1
-1
-1
-1
-1
-1
-1
-1
-1
-1
-1
-1
-1
-1
-1
-1
-1
-1
-1
-1
-1
-1
-1
-1
-1
-1
-1
-1
-1
-1
-1
-1
-1
-1
-1
-1
-1
-1
-1
-1
-1
-1
-1
-1
-1
-1
-1
-1
-1
-1
-1
-1
-1
-1
-1
-1
-1
-1
-1
-1
-1
-1
-1
-1
-1
-1
-1
-1
-1
-1
-1
-1
-1
-1
-1
-1
-1
-1
-1
-1
-1
-1
-1
-1
-1
-1
-1
-1
-1
-1
-1
-1
-1
-1
-1
-1
-1
-1
-1
-1
-1
-1
-1
-1
-1
-1
-1
-1
-1
-1
-1
-1
-1
-1
-1
-1
-1
-1
-1
-1
-1
-1
-1
-1
-1
-1
-1
-1
-1
-1
-1
-1
-1
-1
-1
-1
-1
-1
-1
-1
-1
-1
-1
-1
-1
-1
-1
-1
-1
-1
-1
-1
-1
-1
-1
-1
-1
-1
-1
-1
-1
-1
-1
-1
-1
-1
-1
-1
-1
-1
-1
-1
-1
-1
-1
-1
-1
-1
-1
-1
-1
-1
-1
-1
-1
-1
-1
-1
-1
-1
-1
-1
-1
-1
-1
-1
-1
-1
-1
-1
-1
-1
-1
-1
-1
-1
-1
-1
-1
-1
-1
-1
-1
-1
-1
-1
-1
-1
-1
-1
-1
-1
-1
-1
-1
-1
-1
-1
-1
-1
-1
-1
-1
-1
-1
-1
-1
-1
-1
-1
-1
-1
-1
-1
-1
-1
-1
-1
-1
-1
-1
-1
-1
-1
-1
-1
-1
-1
-1
-1
-1
-1
-1
-1
-1
-1
-1
-1
-1
-1
-1
-1
-1
-1
-1
-1
-1
-1
-1
-1
-1
-1
-1
-1
-1
-1
-1
-1
-1
-1
-1
-1
-1
-1
-1
-1
-1
-1
-1
-1
-1
