# vtk DataFile Version 2.0
rectangle_quad, Created by Gmsh 4.11.1 
ASCII
DATASET UNSTRUCTURED_GRID
POINTS 1681 double
0 0 0
10 0 0
10 5 0
0 5 0
0.5 5 0
1 5 0
1.5 5 0
2 5 0
2.5 5 0
3 5 0
3.5 5 0
4 5 0
4.5 5 0
5 5 0
5.5 5 0
6.000000000000001 5 0
6.5 5 0
7.000000000000001 5 0
7.5 5 0
8 5 0
8.5 5 0
9 5 0
9.5 5 0
0.25 5 0
0.75 5 0
1.25 5 0
1.75 5 0
2.25 5 0
2.75 5 0
3.25 5 0
3.75 5 0
4.25 5 0
4.75 5 0
5.25 5 0
5.75 5 0
6.250000000000001 5 0
6.75 5 0
7.250000000000001 5 0
7.75 5 0
8.25 5 0
8.75 5 0
9.25 5 0
9.75 5 0
10 4.75 0
10 4.5 0
10 4.25 0
10 4 0
10 3.75 0
10 3.5 0
10 3.25 0
10 3 0
10 2.75 0
10 2.5 0
10 2.25 0
10 2 0
10 1.75 0
10 1.5 0
10 1.25 0
10 1 0
10 0.75 0
10 0.5 0
10 0.25 0
10 4.875 0
10 4.625 0
10 4.375 0
10 4.125 0
10 3.875 0
10 3.625 0
10 3.375 0
10 3.125 0
10 2.875 0
10 2.625 0
10 2.375 0
10 2.125 0
10 1.875 0
10 1.625 0
10 1.375 0
10 1.125 0
10 0.875 0
10 0.625 0
10 0.375 0
10 0.125 0
9.5 0 0
9 0 0
8.5 0 0
8 0 0
7.5 0 0
7 0 0
6.5 0 0
6 0 0
5.5 0 0
5 0 0
4.5 0 0
3.999999999999999 0 0
3.5 0 0
2.999999999999999 0 0
2.5 0 0
2 0 0
1.5 0 0
1 0 0
0.5 0 0
9.75 0 0
9.25 0 0
8.75 0 0
8.25 0 0
7.75 0 0
7.25 0 0
6.75 0 0
6.25 0 0
5.75 0 0
5.25 0 0
4.75 0 0
4.25 0 0
3.749999999999999 0 0
3.25 0 0
2.749999999999999 0 0
2.25 0 0
1.75 0 0
1.25 0 0
0.75 0 0
0.25 0 0
0 0.25 0
0 0.5 0
0 0.7500000000000001 0
0 1 0
0 1.25 0
0 1.5 0
0 1.75 0
0 2 0
0 2.25 0
0 2.5 0
0 2.75 0
0 3 0
0 3.25 0
0 3.5 0
0 3.75 0
0 4 0
0 4.25 0
0 4.5 0
0 4.75 0
0 0.125 0
0 0.375 0
0 0.625 0
0 0.875 0
0 1.125 0
0 1.375 0
0 1.625 0
0 1.875 0
0 2.125 0
0 2.375 0
0 2.625 0
0 2.875 0
0 3.125 0
0 3.375 0
0 3.625 0
0 3.875 0
0 4.125 0
0 4.375 0
0 4.625 0
0 4.875 0
0.5000000000000018 4.75 0
0.5 4.5 0
0.5 4.25 0
0.5 4 0
0.5 3.75 0
0.5 3.500000000000001 0
0.4999999999999991 3.25 0
0.5 3 0
0.5 2.75 0
0.5 2.5 0
0.5 2.25 0
0.5 2 0
0.5 1.75 0
0.5 1.5 0
0.5 1.25 0
0.4999999999999991 1 0
0.5 0.7499999999999998 0
0.5 0.5000000000000004 0
0.5 0.25 0
1 4.75 0
1.000000000000001 4.5 0
1 4.25 0
1.000000000000001 4 0
1 3.75 0
1 3.5 0
1 3.25 0
1 3 0
1 2.75 0
1 2.5 0
1 2.25 0
1 2 0
1 1.75 0
1 1.5 0
1 1.25 0
1 1 0
1 0.75 0
1.000000000000001 0.5000000000000004 0
1.000000000000001 0.25 0
1.5 4.75 0
1.5 4.5 0
1.5 4.25 0
1.5 4 0
1.5 3.75 0
1.5 3.5 0
1.5 3.25 0
1.5 3 0
1.5 2.75 0
1.5 2.5 0
1.5 2.25 0
1.5 2 0
1.5 1.75 0
1.5 1.5 0
1.5 1.25 0
1.5 1 0
1.5 0.75 0
1.5 0.5 0
1.5 0.2499999999999996 0
2 4.75 0
2 4.5 0
2 4.25 0
2 4 0
2 3.75 0
2.000000000000001 3.5 0
2 3.25 0
2 3 0
2 2.75 0
2 2.5 0
2 2.25 0
2 2 0
2 1.75 0
2 1.5 0
2 1.25 0
2 1 0
2 0.7500000000000002 0
2 0.5000000000000004 0
2 0.25 0
2.5 4.75 0
2.5 4.5 0
2.5 4.25 0
2.5 4 0
2.5 3.75 0
2.5 3.500000000000001 0
2.5 3.25 0
2.5 3 0
2.5 2.75 0
2.5 2.5 0
2.5 2.25 0
2.5 2 0
2.5 1.75 0
2.5 1.5 0
2.5 1.25 0
2.5 1 0
2.5 0.75 0
2.5 0.5 0
2.5 0.2499999999999996 0
3 4.75 0
3 4.5 0
3 4.25 0
3 4 0
3 3.75 0
3 3.5 0
3 3.25 0
3 3 0
3 2.75 0
3 2.5 0
3 2.25 0
3 2 0
2.999999999999999 1.75 0
2.999999999999999 1.5 0
2.999999999999999 1.25 0
2.999999999999999 1 0
3 0.7499999999999998 0
2.999999999999999 0.5 0
2.999999999999999 0.2499999999999996 0
3.5 4.75 0
3.500000000000001 4.5 0
3.5 4.25 0
3.5 4 0
3.5 3.75 0
3.500000000000001 3.500000000000001 0
3.5 3.25 0
3.5 3 0
3.5 2.75 0
3.5 2.5 0
3.5 2.25 0
3.5 2 0
3.5 1.75 0
3.5 1.5 0
3.5 1.25 0
3.5 1 0
3.5 0.7499999999999998 0
3.5 0.5 0
3.5 0.2499999999999996 0
4 4.75 0
4 4.5 0
4 4.25 0
4 4 0
4 3.75 0
4 3.5 0
4 3.25 0
3.999999999999999 3 0
4 2.75 0
4 2.5 0
4 2.25 0
3.999999999999999 2 0
4 1.75 0
3.999999999999999 1.5 0
3.999999999999999 1.25 0
3.999999999999999 1 0
3.999999999999999 0.75 0
3.999999999999999 0.5 0
3.999999999999999 0.2499999999999996 0
4.5 4.75 0
4.5 4.5 0
4.5 4.25 0
4.5 4 0
4.5 3.75 0
4.5 3.5 0
4.5 3.25 0
4.5 3 0
4.5 2.75 0
4.5 2.5 0
4.5 2.25 0
4.5 2 0
4.5 1.75 0
4.5 1.5 0
4.5 1.25 0
4.5 1 0
4.5 0.75 0
4.5 0.5 0
4.5 0.25 0
5 4.75 0
5 4.5 0
5 4.25 0
5 4 0
5 3.75 0
5 3.5 0
5 3.25 0
5 3 0
5 2.75 0
5 2.5 0
5 2.25 0
5 2 0
5 1.75 0
5 1.5 0
5 1.25 0
5 1 0
5 0.75 0
5 0.5 0
5 0.25 0
5.5 4.75 0
5.5 4.5 0
5.499999999999999 4.25 0
5.5 4 0
5.5 3.75 0
5.5 3.5 0
5.5 3.25 0
5.499999999999999 3 0
5.5 2.75 0
5.5 2.5 0
5.5 2.25 0
5.5 2 0
5.5 1.75 0
5.5 1.5 0
5.5 1.25 0
5.5 1 0
5.499999999999999 0.75 0
5.5 0.5 0
5.5 0.25 0
6.000000000000002 4.75 0
6.000000000000001 4.5 0
6.000000000000002 4.25 0
6.000000000000002 4 0
6.000000000000001 3.75 0
6.000000000000001 3.5 0
6 3.25 0
6.000000000000001 3 0
6 2.75 0
6 2.5 0
6 2.25 0
6.000000000000001 2 0
6 1.75 0
6 1.5 0
6 1.25 0
6.000000000000001 1 0
6 0.75 0
6 0.5 0
6 0.25 0
6.5 4.75 0
6.5 4.5 0
6.5 4.25 0
6.5 4 0
6.5 3.75 0
6.5 3.5 0
6.5 3.25 0
6.5 3 0
6.5 2.75 0
6.5 2.5 0
6.499999999999999 2.25 0
6.5 2 0
6.5 1.75 0
6.5 1.5 0
6.499999999999999 1.25 0
6.499999999999999 1 0
6.5 0.75 0
6.499999999999999 0.5 0
6.5 0.2499999999999996 0
7.000000000000001 4.75 0
7.000000000000002 4.5 0
7 4.25 0
7 4 0
7.000000000000001 3.75 0
7.000000000000001 3.5 0
7.000000000000002 3.25 0
7 3 0
7 2.75 0
7 2.5 0
7 2.25 0
7 2 0
7 1.75 0
7 1.5 0
7 1.25 0
7 1 0
7 0.7499999999999998 0
7 0.5 0
7 0.25 0
7.5 4.75 0
7.5 4.5 0
7.5 4.25 0
7.5 4 0
7.5 3.75 0
7.5 3.5 0
7.5 3.25 0
7.5 3 0
7.5 2.75 0
7.5 2.5 0
7.5 2.25 0
7.5 2 0
7.5 1.75 0
7.5 1.5 0
7.5 1.25 0
7.5 1 0
7.5 0.75 0
7.5 0.5 0
7.5 0.2499999999999996 0
8 4.75 0
8 4.5 0
7.999999999999999 4.25 0
7.999999999999999 4 0
7.999999999999999 3.75 0
7.999999999999998 3.5 0
8 3.25 0
8 3 0
7.999999999999999 2.75 0
8 2.5 0
8 2.25 0
7.999999999999999 2 0
8 1.75 0
8 1.5 0
7.999999999999999 1.25 0
7.999999999999999 1 0
7.999999999999999 0.75 0
8 0.5 0
8 0.25 0
8.5 4.75 0
8.5 4.5 0
8.5 4.25 0
8.5 4 0
8.5 3.75 0
8.5 3.499999999999999 0
8.5 3.25 0
8.5 3 0
8.5 2.75 0
8.5 2.5 0
8.5 2.25 0
8.5 2 0
8.5 1.75 0
8.5 1.5 0
8.5 1.25 0
8.5 1 0
8.5 0.75 0
8.5 0.5 0
8.5 0.25 0
9 4.75 0
9 4.5 0
9 4.25 0
9 4 0
9 3.75 0
9 3.5 0
9 3.25 0
9 3 0
9 2.75 0
9 2.5 0
9 2.25 0
9 2 0
9 1.75 0
9 1.499999999999999 0
9 1.25 0
9 1 0
9 0.75 0
9 0.5000000000000004 0
9 0.25 0
9.499999999999998 4.75 0
9.5 4.5 0
9.5 4.25 0
9.5 4 0
9.5 3.75 0
9.5 3.5 0
9.5 3.25 0
9.5 3 0
9.5 2.75 0
9.5 2.5 0
9.5 2.25 0
9.5 2 0
9.5 1.75 0
9.5 1.499999999999999 0
9.5 1.25 0
9.5 1 0
9.5 0.75 0
9.5 0.5000000000000004 0
9.5 0.25 0
0.5000000000000009 4.875 0
0.2500000000000009 4.75 0
0.2500000000000009 4.875 0
0.5000000000000009 4.625 0
0.25 4.5 0
0.2500000000000009 4.625 0
0.5 4.375 0
0.25 4.25 0
0.25 4.375 0
0.5 4.125 0
0.25 4 0
0.25 4.125 0
0.5 3.875 0
0.25 3.75 0
0.25 3.875 0
0.5 3.625 0
0.25 3.500000000000001 0
0.25 3.625 0
0.5 3.375 0
0.25 3.25 0
0.25 3.375 0
0.5 3.125 0
0.25 3 0
0.25 3.125 0
0.5 2.875 0
0.25 2.75 0
0.25 2.875 0
0.5 2.625 0
0.25 2.5 0
0.25 2.625 0
0.5 2.375 0
0.25 2.25 0
0.25 2.375 0
0.5 2.125 0
0.25 2 0
0.25 2.125 0
0.5 1.875 0
0.25 1.75 0
0.25 1.875 0
0.5 1.625 0
0.25 1.5 0
0.25 1.625 0
0.5 1.375 0
0.25 1.25 0
0.25 1.375 0
0.5 1.125 0
0.25 1 0
0.25 1.125 0
0.5 0.875 0
0.25 0.75 0
0.25 0.875 0
0.5 0.625 0
0.25 0.5000000000000002 0
0.25 0.625 0
0.5 0.375 0
0.25 0.25 0
0.25 0.375 0
0.5 0.125 0
0.25 0.125 0
1 4.875 0
0.7500000000000009 4.75 0
0.7500000000000009 4.875 0
1 4.625 0
0.75 4.5 0
0.75 4.625 0
1 4.375 0
0.75 4.25 0
0.75 4.375 0
1 4.125 0
0.75 4 0
0.75 4.125 0
1 3.875 0
0.75 3.75 0
0.75 3.875 0
1 3.625 0
0.75 3.500000000000001 0
0.75 3.625 0
1 3.375 0
0.75 3.25 0
0.75 3.375 0
1 3.125 0
0.75 3 0
0.75 3.125 0
1 2.875 0
0.75 2.75 0
0.75 2.875 0
1 2.625 0
0.75 2.5 0
0.75 2.625 0
1 2.375 0
0.75 2.25 0
0.75 2.375 0
1 2.125 0
0.75 2 0
0.75 2.125 0
1 1.875 0
0.75 1.75 0
0.75 1.875 0
1 1.625 0
0.75 1.5 0
0.75 1.625 0
1 1.375 0
0.75 1.25 0
0.75 1.375 0
1 1.125 0
0.75 1 0
0.75 1.125 0
1 0.8750000000000002 0
0.75 0.75 0
0.75 0.8750000000000002 0
1 0.6250000000000002 0
0.75 0.5000000000000004 0
0.75 0.6250000000000004 0
1.000000000000001 0.375 0
0.75 0.25 0
0.75 0.375 0
1 0.125 0
0.75 0.125 0
1.5 4.875 0
1.25 4.75 0
1.25 4.875 0
1.5 4.625 0
1.25 4.5 0
1.25 4.625 0
1.5 4.375 0
1.25 4.25 0
1.25 4.375 0
1.5 4.125 0
1.25 4 0
1.25 4.125 0
1.5 3.875 0
1.25 3.75 0
1.25 3.875 0
1.5 3.625 0
1.25 3.5 0
1.25 3.625 0
1.5 3.375 0
1.25 3.25 0
1.25 3.375 0
1.5 3.125 0
1.25 3 0
1.25 3.125 0
1.5 2.875 0
1.25 2.75 0
1.25 2.875 0
1.5 2.625 0
1.25 2.5 0
1.25 2.625 0
1.5 2.375 0
1.25 2.25 0
1.25 2.375 0
1.5 2.125 0
1.25 2 0
1.25 2.125 0
1.5 1.875 0
1.25 1.75 0
1.25 1.875 0
1.5 1.625 0
1.25 1.5 0
1.25 1.625 0
1.5 1.375 0
1.25 1.25 0
1.25 1.375 0
1.5 1.125 0
1.25 1 0
1.25 1.125 0
1.5 0.875 0
1.25 0.75 0
1.25 0.875 0
1.5 0.625 0
1.25 0.5000000000000002 0
1.25 0.6250000000000002 0
1.5 0.375 0
1.25 0.25 0
1.250000000000001 0.375 0
1.5 0.125 0
1.25 0.125 0
2 4.875 0
1.75 4.75 0
1.75 4.875 0
2 4.625 0
1.75 4.5 0
1.75 4.625 0
2 4.375 0
1.75 4.25 0
1.75 4.375 0
2 4.125 0
1.75 4 0
1.75 4.125 0
2 3.875 0
1.75 3.75 0
1.75 3.875 0
2.000000000000001 3.625 0
1.75 3.5 0
1.750000000000001 3.625 0
2 3.375 0
1.75 3.25 0
1.75 3.375 0
2 3.125 0
1.75 3 0
1.75 3.125 0
2 2.875 0
1.75 2.75 0
1.75 2.875 0
2 2.625 0
1.75 2.5 0
1.75 2.625 0
2 2.375 0
1.75 2.25 0
1.75 2.375 0
2 2.125 0
1.75 2 0
1.75 2.125 0
2 1.875 0
1.75 1.75 0
1.75 1.875 0
2 1.625 0
1.75 1.5 0
1.75 1.625 0
2 1.375 0
1.75 1.25 0
1.75 1.375 0
2 1.125 0
1.75 1 0
1.75 1.125 0
2 0.875 0
1.75 0.75 0
1.75 0.875 0
2 0.6250000000000004 0
1.75 0.5000000000000002 0
1.75 0.6250000000000004 0
2 0.375 0
1.75 0.25 0
1.75 0.375 0
2 0.125 0
1.75 0.125 0
2.5 4.875 0
2.25 4.75 0
2.25 4.875 0
2.5 4.625 0
2.25 4.5 0
2.25 4.625 0
2.5 4.375 0
2.25 4.25 0
2.25 4.375 0
2.5 4.125 0
2.25 4 0
2.25 4.125 0
2.5 3.875 0
2.25 3.75 0
2.25 3.875 0
2.5 3.625 0
2.25 3.500000000000001 0
2.250000000000001 3.625 0
2.5 3.375 0
2.25 3.25 0
2.25 3.375 0
2.5 3.125 0
2.25 3 0
2.25 3.125 0
2.5 2.875 0
2.25 2.75 0
2.25 2.875 0
2.5 2.625 0
2.25 2.5 0
2.25 2.625 0
2.5 2.375 0
2.25 2.25 0
2.25 2.375 0
2.5 2.125 0
2.25 2 0
2.25 2.125 0
2.5 1.875 0
2.25 1.75 0
2.25 1.875 0
2.5 1.625 0
2.25 1.5 0
2.25 1.625 0
2.5 1.375 0
2.25 1.25 0
2.25 1.375 0
2.5 1.125 0
2.25 1 0
2.25 1.125 0
2.5 0.8750000000000002 0
2.25 0.75 0
2.25 0.8750000000000002 0
2.5 0.625 0
2.25 0.5000000000000002 0
2.25 0.6250000000000004 0
2.5 0.375 0
2.25 0.25 0
[...]
CELL_DATA 484
SCALARS CellEntityIds int 1
LOOKUP_TABLE default
-1
-1
-1
-1
-1
-1
-1
-1
-1
-1
-1
-1
-1
-1
-1
-1
-1
-1
-1
-1
-1
-1
-1
-1
5
5
5
5
5
5
5
5
5
5
5
5
5
5
5
5
5
5
5
5
-1
-1
-1
-1
-1
-1
-1
-1
-1
-1
-1
-1
-1
-1
-1
-1
-1
-1
-1
-1
1
1
1
1
1
1
1
1
1
1
1
1
1
1
1
1
1
1
1
1
-1
-1
-1
-1
-1
-1
-1
-1
-1
-1
-1
-1
-1
-1
-1
-1
-1
-1
-1
-1
-1
-1
-1
-1
-1
-1
-1
-1
-1
-1
-1
-1
-1
-1
-1
-1
-1
-1
-1
-1
-1
-1
-1
-1
-1
-1
-1
-1
-1
-1
-1
-1
-1
-1
-1
-1
-1
-1
-1
-1
-1
-1
-1
-1
-1
-1
-1
-1
-1
-1
-1
-1
-1
-1
-1
-1
-1
-1
-1
-1
-1
-1
-1
-1
-1
-1
-1
-1
-1
-1
-1
-1
-1
-1
-1
-1
-1
-1
-1
-1
-1
-1
-1
-1
-1
-1
-1
-1
-1
-1
-1
-1
-1
-1
-1
-1
-1
-1
-1
-1
-1
-1
-1
-1
-1
-1
-1
-1
-1
-1
-1
-1
-1
-1
-1
-1
-1
-1
-1
-1
-1
-1
-1
-1
-1
-1
-1
-1
-1
-1
-1
-1
-1
-1
-1
-1
-1
-1
-1
-1
-1
-1
-1
-1
-1
-1
-1
-1
-1
-1
-1
-1
-1
-1
-1
-1
-1
-1
-1
-1
-1
-1
-1
-1
-1
-1
-1
-1
-1
-1
-1
-1
-1
-1
-1
-1
-1
-1
-1
-1
-1
-1
-1
-1
-1
-1
-1
-1
-1
-1
-1
-1
-1
-1
-1
-1
-1
-1
-1
-1
-1
-1
-1
-1
-1
-1
-1
-1
-1
-1
-1
-1
-1
-1
-1
-1
-1
-1
-1
-1
-1
-1
-1
-1
-1
-1
-1
-1
-1
-1
-1
-1
-1
-1
-1
-1
-1
-1
-1
-1
-1
-1
-1
-1
-1
-1
-1
-1
-1
-1
-1
-1
-1
-1
-1
-1
-1
-1
-1
-1
-1
-1
-1
-1
-1
-1
-1
-1
-1
-1
-1
-1
-1
-1
-1
-1
-1
-1
-1
-1
-1
-1
-1
-1
-1
-1
-1
-1
-1
-1
-1
-1
-1
-1
-1
-1
-1
-1
-1
-1
-1
-1
-1
-1
-1
-1
-1
-1
-1
-1
-1
-1
-1
-1
-1
-1
-1
-1
-1
-1
-1
-1
-1
-1
-1
-1
-1
-1
-1
-1
-1
-1
-1
-1
-1
-1
-1
-1
-1
-1
-1
-1
-1
-1
-1
-1
-1
-1
-1
-1
-1
-1
-1
-1
-1
-1
-1
-1
-1
-1
-1
-1
-1
-1
-1
-1
-1
-1
-1
-1
-1
-1
-1
-1
-1
-1
-1
-1
-1
-1
