# vtk DataFile Version 2.0
skew_rectangle, Created by Gmsh 4.11.1 
ASCII
DATASET UNSTRUCTURED_GRID
POINTS 2330 double
0 0 0
20 0 0
20 20 0
40 20 0
30 0 0
21 20 0
22 20 0
23 20 0
24 20 0
25 20 0
26 20 0
27 20 0
28 20 0
29 20 0
30 20 0
31 20 0
32 20 0
33 20 0
34 20 0
35 20 0
36 20 0
37 20 0
38 20 0
39 20 0
20.5 20 0
21.5 20 0
22.5 20 0
23.5 20 0
24.5 20 0
25.5 20 0
26.5 20 0
27.5 20 0
28.5 20 0
29.5 20 0
30.5 20 0
31.5 20 0
32.5 20 0
33.5 20 0
34.5 20 0
35.5 20 0
36.5 20 0
37.5 20 0
38.5 20 0
39.5 20 0
39.33333333333334 19.33333333333333 0
38.66666666666666 18.66666666666667 0
38 18 0
37.33333333333334 17.33333333333333 0
36.66666666666666 16.66666666666667 0
36 16 0
35.33333333333334 15.33333333333333 0
34.66666666666666 14.66666666666667 0
34 14 0
33.33333333333334 13.33333333333333 0
32.66666666666667 12.66666666666667 0
32 12 0
31.33333333333334 11.33333333333333 0
30.66666666666667 10.66666666666667 0
30 10 0
29.33333333333334 9.333333333333334 0
28.66666666666666 8.666666666666666 0
28 8 0
27.33333333333334 7.333333333333334 0
26.66666666666667 6.666666666666668 0
26 6.000000000000002 0
25.33333333333334 5.333333333333336 0
24.66666666666666 4.666666666666666 0
24 4 0
23.33333333333334 3.333333333333336 0
22.66666666666667 2.666666666666668 0
22 2.000000000000004 0
21.33333333333334 1.333333333333336 0
20.66666666666667 0.6666666666666679 0
39.66666666666666 19.66666666666667 0
39 19 0
38.33333333333334 18.33333333333333 0
37.66666666666666 17.66666666666667 0
37 17 0
36.33333333333334 16.33333333333334 0
35.66666666666666 15.66666666666667 0
35 15 0
34.33333333333334 14.33333333333333 0
33.66666666666666 13.66666666666667 0
33 13 0
32.33333333333334 12.33333333333333 0
31.66666666666667 11.66666666666667 0
31 11 0
30.33333333333334 10.33333333333334 0
29.66666666666667 9.666666666666668 0
29 9 0
28.33333333333334 8.333333333333334 0
27.66666666666666 7.666666666666666 0
27 7.000000000000002 0
26.33333333333333 6.333333333333332 0
25.66666666666667 5.66666666666667 0
25 5 0
24.33333333333333 4.333333333333332 0
23.66666666666667 3.666666666666668 0
23 3 0
22.33333333333334 2.333333333333336 0
21.66666666666667 1.666666666666668 0
21 1 0
20.33333333333334 0.3333333333333357 0
19 0 0
18 0 0
17 0 0
16 0 0
15 0 0
14 0 0
13 0 0
12 0 0
11 0 0
10 0 0
9 0 0
8 0 0
7 0 0
6 0 0
5 0 0
4 0 0
3 0 0
2 0 0
1 0 0
19.5 0 0
18.5 0 0
17.5 0 0
16.5 0 0
15.5 0 0
14.5 0 0
13.5 0 0
12.5 0 0
11.5 0 0
10.5 0 0
9.5 0 0
8.5 0 0
7.5 0 0
6.5 0 0
5.5 0 0
4.5 0 0
3.5 0 0
2.5 0 0
1.5 0 0
0.5 0 0
0.6666666666666666 0.6666666666666666 0
1.333333333333333 1.333333333333333 0
2 2 0
2.666666666666667 2.666666666666667 0
3.333333333333333 3.333333333333333 0
4 4 0
4.666666666666666 4.666666666666666 0
5.333333333333333 5.333333333333333 0
6 6 0
6.666666666666666 6.666666666666666 0
7.333333333333332 7.333333333333332 0
8 8 0
8.666666666666666 8.666666666666666 0
9.333333333333332 9.333333333333332 0
10 10 0
10.66666666666667 10.66666666666667 0
11.33333333333333 11.33333333333333 0
12 12 0
12.66666666666667 12.66666666666667 0
13.33333333333333 13.33333333333333 0
14 14 0
14.66666666666666 14.66666666666666 0
15.33333333333333 15.33333333333333 0
16 16 0
16.66666666666666 16.66666666666666 0
17.33333333333333 17.33333333333333 0
18 18 0
18.66666666666666 18.66666666666666 0
19.33333333333333 19.33333333333333 0
0.3333333333333333 0.3333333333333333 0
1 1 0
1.666666666666667 1.666666666666667 0
2.333333333333333 2.333333333333333 0
3 3 0
3.666666666666666 3.666666666666666 0
4.333333333333333 4.333333333333333 0
5 5 0
5.666666666666666 5.666666666666666 0
6.333333333333333 6.333333333333333 0
6.999999999999999 6.999999999999999 0
7.666666666666667 7.666666666666667 0
8.333333333333332 8.333333333333332 0
8.999999999999998 8.999999999999998 0
9.666666666666664 9.666666666666664 0
10.33333333333333 10.33333333333333 0
11 11 0
11.66666666666667 11.66666666666667 0
12.33333333333333 12.33333333333333 0
13 13 0
13.66666666666667 13.66666666666667 0
14.33333333333333 14.33333333333333 0
15 15 0
15.66666666666667 15.66666666666667 0
16.33333333333333 16.33333333333333 0
17 17 0
17.66666666666666 17.66666666666666 0
18.33333333333333 18.33333333333333 0
19 19 0
19.66666666666666 19.66666666666666 0
22.62569632415834 12.8194276472309 0
17.56127456487407 7.220116219190919 0
27.11748768810922 14.62791515696893 0
12.37742909139987 5.432269701470757 0
21.80514911354703 8.142145273335762 0
18.3924027529194 11.92863705847314 0
21.20349100428323 15.9973583868289 0
18.77799821319835 3.863542398950357 0
31.08329538651633 16.40137559537628 0
8.914632836381939 3.597827116292542 0
26.01357277163433 11.31889703890874 0
14.06809611587862 8.617434870556323 0
24.71992432039583 16.83930113876077 0
15.00875505563816 3.082622701051044 0
18.98975322915843 14.77988947265963 0
21.35786981480388 5.572221030673078 0
24.64781095743654 9.044880032222041 0
15.49731377210849 11.47413567859498 0
20.63915115948908 10.93027019742925 0
29.92351910545027 13.57317618527395 0
10.07818840225235 6.405344397855466 0
33.46099213821697 17.16238749899539 0
6.539002623034914 2.837610928868045 0
11.66895362903699 2.378902591594752 0
28.33523851952885 17.6219789989992 0
25.18427972458709 14.26969895097339 0
15.25216806893974 6.213060448828335 0
18.57072878640931 9.557569572488898 0
19.51943143470566 7.233640511342232 0
28.51082349443146 11.79761194946511 0
11.82428125579247 8.168355184327513 0
23.06194021530909 10.45653082356898 0
23.34837614750022 6.766888167798071 0
16.65461018448801 13.65533319332463 0
20.52413649446758 12.83348788013255 0
16.12758080775373 9.002735782557071 0
23.0245556654081 17.82238141219809 0
16.81127109306152 2.407616541224437 0
17.22172695352407 5.079266335084852 0
22.70929520031768 14.77616566120556 0
19.69314630183383 16.47675240574136 0
20.13075637840058 3.316034919119941 0
26.67837163594514 9.632972669901999 0
13.26045713569434 10.56666066758826 0
13.44008194210324 2.164278031019509 0
26.55001552045879 17.81760316739561 0
31.64658448006397 14.30665700006874 0
8.352521952211713 5.691941162309732 0
4.679552451895216 1.839803157805461 0
35.32044749557657 18.16019681955676 0
31.64559163680787 17.92533788480713 0
8.35433188227292 2.074638132134566 0
19.02905321902379 2.008713414028535 0
20.73008057848011 17.87361763202442 0
24.13808784189362 11.81514202612673 0
10.53777418541696 5.001459001463202 0
29.42001413954964 14.96511028240251 0
27.02083652878934 12.64021175030653 0
12.61345494806298 7.099061330359219 0
19.34424118687451 5.425121224576899 0
33.01722708010264 15.6649665367991 0
6.982650799030935 4.334966055099697 0
20.90030719146226 14.43566182866499 0
17.14014980422662 10.65597980146902 0
20.19671476408944 9.014116154209026 0
15.27892810004424 7.680621856250403 0
13.6116480557418 3.758266628964388 0
26.50252084357767 16.18799223575866 0
22.60508232494979 5.261014279396237 0
17.07099747987715 14.58987513471532 0
30.12720152473972 17.87192127382497 0
9.872463150005505 2.128050084042785 0
15.33281153237354 12.8154234332311 0
24.48915710208698 6.968133912081545 0
15.39720579785386 1.597602451057464 0
24.56666692551449 18.47923323312476 0
27.68375232111535 10.35842598150216 0
12.16315503151308 9.967614767210829 0
17.89770306273588 13.08423270782671 0
21.869403679497 6.582637556210523 0
16.73313987363716 3.65933480694812 0
23.13617330910499 15.95043141065945 0
24.88939144383888 10.16749302472105 0
29.944464731372 11.421656615812 0
10.06980994740865 8.578623721674136 0
23.18652297100601 7.850643207821582 0
25.31264068392848 12.81515896255144 0
19.19721708461237 10.92325775583067 0
21.7190983911696 3.708711026359082 0
18.55512445852556 16.09546729664407 0
14.72111285504817 9.857127497748646 0
16.59201129020706 11.854787891901 0
11.69391850803827 6.398970283375749 0
28.51239612267739 13.41692082468764 0
25.51157044074814 8.255423626332458 0
13.95784465494424 11.98471942587019 0
21.61244111032136 11.49744154817213 0
34.79108602110045 16.86150126688118 0
5.208912999325612 3.138498301050382 0
17.14110684718139 8.670576335930242 0
3.563821525806222 1.643769022202836 0
36.43617847030411 18.35623097611985 0
21.92603077992194 13.846705094825 0
31.03377380596395 13.1982780047 0
8.968020435838014 6.797981456993146 0
18.68061921577863 7.811107737955536 0
15.71520280783516 4.500309178969077 0
24.49451716682768 15.34553302477237 0
13.99274327517476 5.047352254397693 0
25.83611403448592 15.17745085347523 0
27.69943231248308 18.57568264548026 0
12.2988863812022 1.421466429770081 0
24.16350754347564 13.25204545344213 0
18.54237857858399 6.665791889130878 0
6.065074919758123 1.549539903766185 0
33.93492496927931 18.4504600482078 0
31.94831463842475 16.75019359754404 0
8.0513396547078 3.249661849855877 0
16.16112104596484 6.403585403901541 0
27.98957980863716 16.14147654759481 0
12.01777298571589 3.894514393894434 0
29.47685169288949 16.66209840855974 0
10.51829619022978 3.338721410379768 0
19.44731107035679 12.03735722037236 0
9.810391700714733 5.408110443499858 0
30.17816660170305 14.57695066438891 0
14.31371304176123 6.774389794531215 0
19.6071370366468 4.42675422746892 0
17.91209323422408 1.052404632079972 0
22.21402113306229 19.22416151880143 0
20.08043544528434 2.141025460409201 0
21.01837204686076 7.281501837072028 0
23.57323560368266 9.323895708461396 0
32.89784015268179 18.37633234979924 0
7.102154532535032 1.623665961448706 0
19.40977962369435 13.78137253559575 0
12.76298443478458 8.851475752413592 0
27.1026511693189 11.27611815351914 0
20.31249732215155 6.35906357125723 0
20.14876399521077 15.40579723835435 0
21.36820346243836 12.50179999800088 0
26.28634039076179 13.38314833890925 0
11.09271970314036 9.396911393059369 0
28.94978386015028 10.68531101296784 0
23.98735513138474 5.463772672169021 0
15.9553519554852 14.53703432823478 0
16.30519608264607 8.078183229681507 0
18.01549812134456 10.38047573584256 0
22.62884832464378 11.63864682609255 0
6.817419856377271 5.507956043211512 0
33.18244195147311 14.49189012425783 0
22.22104554680369 17.45563447227658 0
[...]
CELL_DATA 662
SCALARS CellEntityIds int 1
LOOKUP_TABLE default
-1
-1
-1
-1
-1
5
5
5
5
5
5
5
5
5
5
5
5
5
5
5
5
5
5
5
5
-1
-1
-1
-1
-1
-1
-1
-1
-1
-1
-1
-1
-1
-1
-1
-1
-1
-1
-1
-1
-1
-1
-1
-1
-1
-1
-1
-1
-1
-1
1
1
1
1
1
1
1
1
1
1
1
1
1
1
1
1
1
1
1
1
-1
-1
-1
-1
-1
-1
-1
-1
-1
-1
-1
-1
-1
-1
-1
-1
-1
-1
-1
-1
-1
-1
-1
-1
-1
-1
-1
-1
-1
-1
-1
-1
-1
-1
-1
-1
-1
-1
-1
-1
-1
-1
-1
-1
-1
-1
-1
-1
-1
-1
-1
-1
-1
-1
-1
-1
-1
-1
-1
-1
-1
-1
-1
-1
-1
-1
-1
-1
-1
-1
-1
-1
-1
-1
-1
-1
-1
-1
-1
-1
-1
-1
-1
-1
-1
-1
-1
-1
-1
-1
-1
-1
-1
-1
-1
-1
-1
-1
-1
-1
-1
-1
-1
-1
-1
-1
-1
-1
-1
-1
-1
-1
-1
-1
-1
-1
-1
-1
-1
-1
-1
-1
-1
-1
-1
-1
-1
-1
-1
-1
-1
-1
-1
-1
-1
-1
-1
-1
-1
-1
-1
-1
-1
-1
-1
-1
-1
-1
-1
-1
-1
-1
-1
-1
-1
-1
-1
-1
-1
-1
-1
-1
-1
-1
-1
-1
-1
-1
-1
-1
-1
-1
-1
-1
-1
-1
-1
-1
-1
-1
-1
-1
-1
-1
-1
-1
-1
-1
-1
-1
-1
-1
-1
-1
-1
-1
-1
-1
-1
-1
-1
-1
-1
-1
-1
-1
-1
-1
-1
-1
-1
-1
-1
-1
-1
-1
-1
-1
-1
-1
-1
-1
-1
-1
-1
-1
-1
-1
-1
-1
-1
-1
-1
-1
-1
-1
-1
-1
-1
-1
-1
-1
-1
-1
-1
-1
-1
-1
-1
-1
-1
-1
-1
-1
-1
-1
-1
-1
-1
-1
-1
-1
-1
-1
-1
-1
-1
-1
-1
-1
-1
-1
-1
-1
-1
-1
-1
-1
-1
-1
-1
-1
-1
-1
-1
-1
-1
-1
-1
-1
-1
-1
-1
-1
-1
-1
-1
-1
-1
-1
-1
-1
-1
-1
-1
-1
-1
-1
-1
-1
-1
-1
-1
-1
-1
-1
-1
-1
-1
-1
-1
-1
-1
-1
-1
-1
-1
-1
-1
-1
-1
-1
-1
-1
-1
-1
-1
-1
-1
-1
-1
-1
-1
-1
-1
-1
-1
-1
-1
-1
-1
-1
-1
-1
-1
-1
-1
-1
-1
-1
-1
-1
-1
-1
-1
-1
-1
-1
-1
-1
-1
-1
-1
-1
-1
-1
-1
-1
-1
-1
-1
-1
-1
-1
-1
-1
-1
-1
-1
-1
-1
-1
-1
-1
-1
-1
-1
-1
-1
-1
-1
-1
-1
-1
-1
-1
-1
-1
-1
-1
-1
-1
-1
-1
-1
-1
-1
-1
-1
-1
-1
-1
-1
-1
-1
-1
-1
-1
-1
-1
-1
-1
-1
-1
-1
-1
-1
-1
-1
-1
-1
-1
-1
-1
-1
-1
-1
-1
-1
-1
-1
-1
-1
-1
-1
-1
-1
-1
-1
-1
-1
-1
-1
-1
-1
-1
-1
-1
-1
-1
-1
-1
-1
-1
-1
-1
-1
-1
-1
-1
-1
-1
-1
-1
-1
-1
-1
-1
-1
-1
-1
-1
-1
-1
-1
-1
-1
-1
-1
-1
-1
-1
-1
-1
-1
-1
-1
-1
-1
-1
-1
-1
-1
-1
-1
-1
-1
-1
-1
-1
-1
-1
-1
-1
-1
-1
-1
-1
-1
-1
-1
-1
-1
-1
-1
-1
-1
-1
-1
-1
-1
-1
-1
-1
-1
-1
-1
-1
-1
-1
-1
-1
-1
-1
-1
-1
-1
-1
-1
-1
-1
-1
-1
-1
-1
-1
-1
-1
-1
-1
-1
-1
-1
-1
-1
-1
-1
-1
-1
-1
-1
-1
-1
-1
-1
-1
-1
